# vtk DataFile Version 3.0
vtk output
ASCII
DATASET POLYDATA
POINTS 6 float
3582.11 247.69 826.71 3572.11 247.68 827.14 3561.53 247.68 827.59 
3551.47 247.69 828.03 3607.25 247.75 825.64 3525.67 247.83 829.13 

LINES 1 7
6 5 3 2 1 0 4 
POINT_DATA 6
FIELD FieldData 1
MaximumInscribedSphereRadius 1 6 double
63.14 62.90 62.65 62.40 63.33 62.19 
