# vtk DataFile Version 3.0
vtk output
ASCII
DATASET POLYDATA
POINTS 34 float
3170.67 253.79 819.93 3167.16 254.01 820.03 3163.12 254.27 820.14 
3158.67 254.55 820.27 3153.96 254.84 820.40 3149.09 255.14 820.54 
3144.14 255.44 820.69 3139.15 255.74 820.84 3134.15 256.04 820.99 
3129.14 256.34 821.14 3124.08 256.63 821.29 3118.97 256.94 821.45 
3113.75 257.24 821.61 3108.41 257.56 821.77 3102.95 257.88 821.94 
3097.40 258.22 822.11 3091.81 258.56 822.28 3086.26 258.90 822.44 
3080.79 259.24 822.60 3075.45 259.57 822.75 3070.23 259.90 822.90 
3065.11 260.23 823.05 3060.05 260.56 823.18 3055.04 260.89 823.32 
3050.05 261.22 823.45 3045.08 261.55 823.58 3040.16 261.88 823.71 
3035.32 262.21 823.84 3030.65 262.52 823.96 3026.24 262.82 824.07 
3022.24 263.09 824.17 3018.77 263.33 824.26 3179.58 253.20 819.69 
3009.98 263.92 824.49 
LINES 1 35
34 33 31 30 29 28 27 26 25 24 23 22 21 20 19 18 17 16 15 14 13 12 11 10 9 8 7 6 5 4 3 2 1 0 32 
POINT_DATA 34
FIELD FieldData 1
MaximumInscribedSphereRadius 1 34 double
111.86 111.88 111.90 111.93 111.97 112.00 112.04 112.09 112.13 
112.18 112.22 112.27 112.31 112.36 112.40 112.44 112.47 112.51 
112.53 112.56 112.58 112.59 112.61 112.62 112.63 112.63 112.64 
112.64 112.64 112.64 112.64 112.64 111.85 112.64 
