# vtk DataFile Version 3.0
vtk output
ASCII
DATASET POLYDATA
POINTS 18 float
3599.80 247.62 825.94 3596.81 247.56 826.07 3593.31 247.47 826.22 
3589.38 247.37 826.39 3585.10 247.22 826.60 3580.55 247.05 826.82 
3575.78 246.85 827.06 3570.85 246.64 827.31 3565.84 246.46 827.55 
3560.81 246.34 827.77 3555.83 246.30 827.97 3550.98 246.35 828.14 
3546.33 246.50 828.30 3541.97 246.70 828.45 3538.03 246.93 828.59 
3534.60 247.17 828.73 3607.25 247.75 825.64 3525.67 247.83 829.13 

LINES 1 19
18 17 15 14 13 12 11 10 9 8 7 6 5 4 3 2 1 0 16 
POINT_DATA 18
FIELD FieldData 1
MaximumInscribedSphereRadius 1 18 double
63.39 63.23 63.02 62.78 62.53 62.29 62.07 61.88 61.74 
61.67 61.65 61.68 61.73 61.78 61.81 61.83 63.51 61.82 

