# vtk DataFile Version 3.0
vtk output
ASCII
DATASET POLYDATA
POINTS 28 float
4326.40 -316.13 949.23 4323.63 -316.12 948.53 4320.49 -316.11 947.72 
4317.10 -316.10 946.86 4313.55 -316.09 945.95 4309.92 -316.08 945.01 
4306.27 -316.06 944.07 4302.60 -316.03 943.13 4298.94 -316.01 942.18 
4295.27 -315.98 941.23 4291.62 -315.95 940.28 4287.96 -315.92 939.33 
4284.30 -315.90 938.38 4280.65 -315.87 937.43 4277.00 -315.84 936.47 
4273.35 -315.81 935.52 4269.70 -315.79 934.57 4266.06 -315.77 933.62 
4262.42 -315.75 932.68 4258.81 -315.73 931.74 4255.22 -315.72 930.82 
4251.71 -315.70 929.91 4248.31 -315.69 929.04 4245.12 -315.68 928.22 
4242.22 -315.67 927.48 4239.71 -315.67 926.84 4333.70 -316.14 951.09 
4233.36 -315.65 925.22 
LINES 1 29
28 27 25 24 23 22 21 20 19 18 17 16 15 14 13 12 11 10 9 8 7 6 5 4 3 2 1 0 26 
POINT_DATA 28
FIELD FieldData 1
MaximumInscribedSphereRadius 1 28 double
31.07 31.08 31.09 31.10 31.11 31.12 31.13 31.13 31.13 
31.12 31.10 31.07 31.03 30.99 30.94 30.90 30.86 30.82 
30.78 30.75 30.72 30.69 30.67 30.66 30.65 30.65 31.07 
30.65 
