# vtk DataFile Version 3.0
vtk output
ASCII
DATASET POLYDATA
POINTS 1024 float
-323.50 -6.54 174.62 -323.50 -6.54 173.39 -323.50 -6.54 172.02 
-323.50 -6.54 170.55 -323.50 -6.54 169.01 -323.50 -6.54 167.44 
-323.50 -6.54 165.82 -323.50 -6.54 164.19 -323.50 -6.54 162.53 
-323.50 -6.54 160.86 -323.49 -6.54 159.18 -323.49 -6.54 157.49 
-323.48 -6.54 155.80 -323.46 -6.54 154.12 -323.44 -6.55 152.43 
-323.40 -6.55 150.76 -323.34 -6.56 149.10 -323.25 -6.56 147.45 
-323.11 -6.57 145.83 -322.92 -6.58 144.23 -322.66 -6.59 142.68 
-322.31 -6.59 141.17 -321.84 -6.60 139.72 -321.25 -6.61 138.34 
-320.52 -6.61 137.05 -319.63 -6.61 135.86 -318.59 -6.61 134.78 
-317.38 -6.61 133.82 -316.02 -6.61 132.98 -314.52 -6.60 132.27 
-312.89 -6.59 131.69 -311.17 -6.58 131.23 -309.37 -6.58 130.88 
-307.51 -6.57 130.62 -305.63 -6.56 130.44 -303.73 -6.55 130.32 
-301.83 -6.54 130.26 -299.95 -6.53 130.23 -298.08 -6.52 130.22 
-296.23 -6.51 130.24 -294.40 -6.49 130.26 -292.58 -6.48 130.29 
-290.77 -6.48 130.32 -288.98 -6.48 130.35 -287.19 -6.48 130.38 
-285.40 -6.49 130.40 -283.62 -6.50 130.42 -281.84 -6.52 130.43 
-280.06 -6.54 130.44 -278.27 -6.56 130.43 -276.49 -6.58 130.43 
-274.70 -6.60 130.41 -272.92 -6.62 130.39 -271.14 -6.63 130.36 
-269.36 -6.64 130.34 -267.58 -6.64 130.31 -265.80 -6.64 130.28 
-264.02 -6.63 130.25 -262.25 -6.62 130.23 -260.48 -6.61 130.22 
-258.71 -6.59 130.22 -256.94 -6.58 130.22 -255.17 -6.56 130.23 
-253.41 -6.55 130.25 -251.65 -6.54 130.28 -249.88 -6.54 130.31 
-248.12 -6.53 130.33 -246.36 -6.54 130.36 -244.60 -6.55 130.38 
-242.84 -6.56 130.40 -241.08 -6.57 130.41 -239.32 -6.58 130.41 
-237.57 -6.59 130.41 -235.81 -6.60 130.40 -234.06 -6.60 130.39 
-232.30 -6.60 130.37 -230.55 -6.59 130.36 -228.80 -6.58 130.34 
-227.05 -6.57 130.33 -225.29 -6.55 130.33 -223.54 -6.53 130.33 
-221.79 -6.52 130.33 -220.04 -6.50 130.35 -218.29 -6.49 130.36 
-216.53 -6.49 130.38 -214.78 -6.49 130.39 -213.02 -6.50 130.41 
-211.26 -6.52 130.42 -209.50 -6.54 130.43 -207.73 -6.56 130.44 
-205.96 -6.58 130.43 -204.18 -6.61 130.42 -202.40 -6.63 130.40 
-200.61 -6.64 130.38 -198.82 -6.65 130.36 -197.02 -6.65 130.33 
-195.21 -6.64 130.30 -193.40 -6.63 130.28 -191.58 -6.60 130.26 
-189.76 -6.57 130.25 -187.93 -6.54 130.25 -186.10 -6.51 130.26 
-184.26 -6.48 130.27 -182.42 -6.46 130.29 -180.57 -6.45 130.32 
-178.72 -6.45 130.35 -176.86 -6.46 130.38 -175.00 -6.48 130.41 
-173.14 -6.50 130.43 -171.27 -6.54 130.44 -169.41 -6.57 130.45 
-167.54 -6.60 130.45 -165.67 -6.63 130.45 -163.81 -6.66 130.44 
-161.96 -6.68 130.42 -160.11 -6.69 130.40 -158.27 -6.69 130.38 
-156.44 -6.68 130.37 -154.62 -6.67 130.35 -152.82 -6.66 130.34 
-151.02 -6.64 130.33 -149.24 -6.62 130.32 -147.46 -6.61 130.32 
-145.70 -6.60 130.32 -143.94 -6.59 130.32 -142.19 -6.58 130.32 
-140.44 -6.58 130.32 -138.69 -6.58 130.32 -136.95 -6.59 130.32 
-135.20 -6.59 130.33 -133.45 -6.60 130.33 -131.70 -6.61 130.33 
-129.95 -6.62 130.34 -128.19 -6.63 130.35 -126.43 -6.63 130.36 
-124.66 -6.63 130.37 -122.89 -6.63 130.39 -121.12 -6.62 130.41 
-119.34 -6.61 130.42 -117.55 -6.60 130.43 -115.77 -6.58 130.44 
-113.97 -6.57 130.45 -112.18 -6.55 130.45 -110.37 -6.54 130.45 
-108.56 -6.53 130.44 -106.75 -6.53 130.43 -104.93 -6.53 130.42 
-103.10 -6.53 130.40 -101.26 -6.54 130.40 -99.41 -6.56 130.39 
-97.56 -6.57 130.39 -95.70 -6.58 130.39 -93.83 -6.59 130.40 
-91.96 -6.60 130.41 -90.08 -6.60 130.42 -88.20 -6.59 130.44 
-86.32 -6.58 130.45 -84.43 -6.57 130.45 -82.54 -6.55 130.46 
-80.66 -6.53 130.46 -78.77 -6.51 130.45 -76.88 -6.49 130.44 
-75.00 -6.48 130.42 -73.12 -6.47 130.40 -71.24 -6.47 130.38 
-69.37 -6.48 130.36 -67.49 -6.49 130.34 -65.62 -6.50 130.32 
-63.76 -6.52 130.30 -61.89 -6.54 130.28 -60.03 -6.57 130.25 
-58.18 -6.59 130.22 -56.34 -6.61 130.17 -54.50 -6.62 130.10 
-52.67 -6.63 130.01 -50.86 -6.64 129.89 -49.06 -6.64 129.72 
-47.28 -6.64 129.52 -45.52 -6.64 129.26 -43.78 -6.63 128.94 
-42.06 -6.62 128.57 -40.37 -6.61 128.13 -38.70 -6.60 127.62 
-37.07 -6.59 127.04 -35.46 -6.58 126.38 -33.89 -6.57 125.65 
-32.35 -6.57 124.85 -30.84 -6.56 123.98 -29.38 -6.56 123.03 
-27.95 -6.55 122.02 -26.57 -6.55 120.93 -25.24 -6.54 119.78 
-23.96 -6.54 118.56 -22.73 -6.53 117.28 -21.57 -6.53 115.93 
-20.46 -6.52 114.53 -19.42 -6.52 113.08 -18.46 -6.51 111.58 
-17.56 -6.51 110.02 -16.75 -6.51 108.42 -16.02 -6.51 106.78 
-15.37 -6.51 105.11 -14.80 -6.51 103.39 -14.32 -6.51 101.65 
-13.93 -6.51 99.89 -13.62 -6.51 98.10 -13.40 -6.51 96.29 
-13.28 -6.50 94.47 -13.24 -6.50 92.63 -13.30 -6.50 90.79 
-13.45 -6.49 88.95 -13.69 -6.49 87.11 -14.03 -6.49 85.29 
-14.46 -6.49 83.47 -14.99 -6.49 81.68 -15.60 -6.50 79.91 
-16.31 -6.51 78.18 -17.11 -6.52 76.48 -17.99 -6.53 74.82 
-18.96 -6.55 73.21 -20.01 -6.56 71.65 -21.13 -6.57 70.15 
-22.34 -6.59 68.70 -23.61 -6.59 67.32 -24.95 -6.60 66.00 
-26.35 -6.59 64.75 -27.82 -6.59 63.58 -29.33 -6.58 62.48 
-30.90 -6.57 61.47 -32.50 -6.56 60.53 -34.14 -6.56 59.68 
-35.81 -6.55 58.91 -37.51 -6.54 58.23 -39.22 -6.54 57.62 
-40.95 -6.53 57.10 -42.68 -6.53 56.65 -44.42 -6.53 56.27 
-46.16 -6.53 55.95 -47.91 -6.53 55.69 -49.65 -6.53 55.48 
-51.38 -6.53 55.32 -53.11 -6.53 55.19 -54.84 -6.54 55.08 
-56.56 -6.54 55.01 -58.28 -6.54 54.94 -59.99 -6.54 54.90 
-61.70 -6.54 54.86 -63.40 -6.54 54.83 -65.10 -6.54 54.81 
-66.80 -6.54 54.79 -68.50 -6.54 54.77 -70.19 -6.54 54.75 
-71.88 -6.54 54.74 -73.57 -6.54 54.72 -75.26 -6.54 54.71 
-76.95 -6.54 54.69 -78.63 -6.54 54.68 -80.32 -6.54 54.66 
-82.00 -6.54 54.65 -83.69 -6.55 54.63 -85.37 -6.55 54.62 
-87.05 -6.55 54.60 -88.74 -6.56 54.58 -90.43 -6.56 54.56 
-92.12 -6.57 54.54 -93.81 -6.57 54.52 -95.50 -6.58 54.50 
-97.20 -6.58 54.47 -98.90 -6.59 54.45 -100.61 -6.58 54.43 
-102.32 -6.58 54.40 -104.03 -6.57 54.38 -105.74 -6.56 54.36 
-107.46 -6.55 54.35 -109.18 -6.54 54.34 -110.90 -6.52 54.33 
-112.62 -6.51 54.33 -114.34 -6.49 54.33 -116.06 -6.48 54.33 
-117.77 -6.48 54.34 -119.49 -6.48 54.35 -121.20 -6.49 54.35 
-122.91 -6.50 54.35 -124.62 -6.51 54.35 -126.32 -6.53 54.34 
-128.03 -6.55 54.33 -129.74 -6.57 54.31 -131.44 -6.58 54.28 
-133.15 -6.59 54.25 -134.86 -6.60 54.22 -136.57 -6.60 54.19 
-138.29 -6.59 54.16 -140.01 -6.58 54.13 -141.74 -6.57 54.10 
-143.47 -6.55 54.08 -145.21 -6.53 54.07 -146.95 -6.51 54.06 
-148.71 -6.50 54.06 -150.46 -6.49 54.06 -152.23 -6.48 54.06 
-154.00 -6.48 54.06 -155.77 -6.49 54.07 -157.55 -6.50 54.07 
-159.33 -6.51 54.06 -161.12 -6.53 54.05 -162.90 -6.55 54.04 
-164.69 -6.57 54.02 -166.48 -6.58 53.99 -168.27 -6.59 53.96 
-170.05 -6.60 53.93 -171.84 -6.60 53.90 -173.62 -6.59 53.87 
-175.39 -6.58 53.84 -177.17 -6.57 53.81 -178.93 -6.55 53.79 
-180.70 -6.53 53.78 -182.46 -6.52 53.77 -184.21 -6.50 53.77 
-185.96 -6.49 53.77 -187.71 -6.49 53.78 -189.45 -6.49 53.78 
-191.19 -6.50 53.79 -192.92 -6.50 53.79 -194.65 -6.52 53.79 
-196.38 -6.53 53.79 -198.10 -6.54 53.78 -199.81 -6.55 53.77 
-201.52 -6.56 53.75 -203.22 -6.57 53.73 -204.91 -6.57 53.71 
-206.59 -6.57 53.68 -208.26 -6.57 53.66 -209.93 -6.57 53.63 
-211.59 -6.56 53.61 -213.24 -6.56 53.59 -214.88 -6.55 53.57 
-216.52 -6.55 53.55 -218.16 -6.55 53.53 -219.80 -6.54 53.52 
-221.43 -6.54 53.50 -223.07 -6.54 53.49 -224.71 -6.54 53.47 
-226.35 -6.54 53.46 -227.99 -6.54 53.44 -229.64 -6.54 53.43 
-231.28 -6.54 53.42 -232.94 -6.54 53.40 -234.59 -6.54 53.39 
-236.25 -6.54 53.38 -237.92 -6.54 53.36 -239.58 -6.54 53.35 
-241.26 -6.54 53.33 -242.93 -6.54 53.32 -244.61 -6.54 53.30 
-246.29 -6.54 53.29 -247.98 -6.54 53.27 -249.67 -6.54 53.26 
-251.37 -6.53 53.24 -253.07 -6.53 53.22 -254.77 -6.53 53.20 
-256.49 -6.52 53.18 -258.20 -6.51 53.16 -259.93 -6.50 53.14 
-261.66 -6.49 53.12 -263.40 -6.48 53.10 -265.14 -6.47 53.07 
-266.89 -6.45 53.04 -268.64 -6.44 53.00 -270.40 -6.43 52.96 
-272.15 -6.42 52.90 -273.91 -6.42 52.83 -275.66 -6.42 52.73 
-277.40 -6.42 52.61 -279.14 -6.42 52.46 -280.88 -6.42 52.28 
-282.61 -6.42 52.07 -284.33 -6.43 51.81 -286.05 -6.43 51.51 
-287.77 -6.44 51.17 -289.48 -6.44 50.77 -291.18 -6.45 50.32 
-292.88 -6.46 49.81 -294.57 -6.47 49.25 -296.25 -6.48 48.62 
-297.92 -6.49 47.94 -299.57 -6.50 47.19 -301.20 -6.51 46.37 
-302.81 -6.52 45.50 -304.40 -6.53 44.56 -305.97 -6.54 43.57 
-307.50 -6.54 42.51 -309.00 -6.54 41.40 -310.47 -6.54 40.23 
-311.90 -6.54 39.01 -313.28 -6.54 37.74 -314.62 -6.54 36.42 
-315.91 -6.53 35.05 -317.15 -6.53 33.65 -318.34 -6.53 32.20 
-319.47 -6.53 30.71 -320.54 -6.53 29.18 -321.55 -6.53 27.63 
-322.51 -6.53 26.04 -323.40 -6.53 24.43 -324.24 -6.53 22.79 
-325.02 -6.53 21.13 -325.74 -6.53 19.44 -326.40 -6.53 17.74 
-327.00 -6.52 16.02 -327.54 -6.52 14.29 -328.03 -6.51 12.55 
-328.45 -6.51 10.80 -328.82 -6.51 9.03 -329.13 -6.51 7.26 
-329.38 -6.51 5.49 -329.56 -6.52 3.72 -329.69 -6.52 1.94 
-329.75 -6.53 0.16 -329.76 -6.53 -1.62 -329.70 -6.54 -3.39 
-329.59 -6.54 -5.15 -329.42 -6.55 -6.91 -329.18 -6.55 -8.67 
-328.89 -6.55 -10.41 -328.55 -6.55 -12.14 -328.14 -6.55 -13.85 
-327.68 -6.55 -15.55 -327.16 -6.55 -17.23 -326.58 -6.55 -18.89 
-325.96 -6.55 -20.53 -325.27 -6.55 -22.14 -324.54 -6.55 -23.72 
-323.75 -6.55 -25.28 -322.92 -6.55 -26.81 -322.04 -6.54 -28.31 
-321.11 -6.54 -29.77 -320.14 -6.54 -31.21 -319.11 -6.54 -32.62 
-318.05 -6.53 -33.99 -316.93 -6.53 -35.33 -315.78 -6.53 -36.64 
-314.57 -6.54 -37.91 -313.33 -6.54 -39.14 -312.04 -6.55 -40.33 
-310.71 -6.55 -41.48 -309.34 -6.56 -42.58 -307.93 -6.57 -43.64 
-306.49 -6.57 -44.65 -305.02 -6.58 -45.60 -303.51 -6.58 -46.51 
-301.98 -6.58 -47.37 -300.42 -6.57 -48.17 -298.83 -6.56 -48.91 
-297.22 -6.55 -49.60 -295.58 -6.53 -50.22 -293.92 -6.51 -50.78 
-292.25 -6.49 -51.29 -290.55 -6.47 -51.72 -288.83 -6.45 -52.10 
-287.10 -6.43 -52.42 -285.36 -6.41 -52.68 -283.61 -6.40 -52.89 
-281.85 -6.39 -53.06 -280.09 -6.39 -53.18 -278.31 -6.39 -53.28 
-276.53 -6.40 -53.34 -274.75 -6.41 -53.39 -272.96 -6.43 -53.42 
-271.17 -6.45 -53.44 -269.37 -6.47 -53.46 -267.58 -6.50 -53.47 
-265.77 -6.52 -53.48 -263.97 -6.54 -53.48 -262.17 -6.56 -53.48 
-260.37 -6.57 -53.48 -258.58 -6.58 -53.48 -256.80 -6.59 -53.47 
-255.02 -6.59 -53.46 -253.25 -6.59 -53.45 -251.48 -6.58 -53.44 
[...]
POINT_DATA 1024
FIELD FieldData 1
MaximumInscribedSphereRadius 1 1024 double
4.08 4.08 4.08 4.08 4.08 4.08 4.08 4.08 4.08 
4.08 4.08 4.08 4.07 4.07 4.07 4.06 4.05 4.04 
4.03 4.02 4.00 3.98 3.96 3.94 3.92 3.89 3.87 
3.85 3.83 3.81 3.80 3.79 3.79 3.79 3.80 3.81 
3.83 3.85 3.87 3.88 3.90 3.91 3.92 3.93 3.94 
3.94 3.94 3.94 3.94 3.94 3.93 3.93 3.92 3.91 
3.90 3.88 3.87 3.85 3.84 3.83 3.82 3.81 3.81 
3.82 3.83 3.84 3.85 3.87 3.88 3.90 3.91 3.92 
3.93 3.93 3.94 3.94 3.94 3.95 3.95 3.95 3.95 
3.95 3.94 3.94 3.94 3.94 3.93 3.93 3.92 3.91 
3.90 3.89 3.88 3.87 3.86 3.85 3.84 3.83 3.82 
3.82 3.81 3.81 3.82 3.82 3.82 3.83 3.84 3.85 
3.85 3.86 3.87 3.88 3.89 3.90 3.90 3.91 3.92 
3.93 3.94 3.95 3.96 3.97 3.98 3.99 4.00 4.00 
4.00 4.01 4.00 4.00 3.99 3.99 3.98 3.97 3.97 
3.96 3.96 3.95 3.95 3.95 3.94 3.94 3.94 3.93 
3.93 3.92 3.92 3.91 3.90 3.90 3.89 3.88 3.87 
3.87 3.86 3.86 3.85 3.85 3.85 3.85 3.85 3.85 
3.85 3.85 3.85 3.85 3.86 3.86 3.87 3.87 3.88 
3.88 3.89 3.89 3.90 3.91 3.91 3.92 3.92 3.92 
3.93 3.93 3.93 3.93 3.94 3.94 3.94 3.94 3.94 
3.94 3.94 3.94 3.93 3.93 3.92 3.91 3.90 3.89 
3.89 3.88 3.88 3.88 3.88 3.89 3.89 3.90 3.91 
3.92 3.93 3.93 3.94 3.94 3.94 3.94 3.93 3.93 
3.93 3.93 3.92 3.92 3.92 3.92 3.92 3.93 3.93 
3.94 3.94 3.95 3.96 3.97 3.97 3.98 3.98 3.99 
4.00 4.00 4.01 4.02 4.02 4.03 4.04 4.05 4.05 
4.06 4.06 4.07 4.07 4.07 4.08 4.08 4.08 4.08 
4.08 4.08 4.08 4.08 4.08 4.08 4.07 4.07 4.07 
4.06 4.06 4.05 4.05 4.04 4.03 4.02 4.01 4.00 
3.99 3.98 3.97 3.96 3.96 3.95 3.95 3.95 3.94 
3.94 3.94 3.94 3.94 3.94 3.94 3.94 3.94 3.94 
3.94 3.94 3.94 3.94 3.94 3.94 3.94 3.94 3.94 
3.94 3.94 3.94 3.95 3.95 3.95 3.95 3.95 3.95 
3.95 3.95 3.95 3.95 3.95 3.95 3.95 3.95 3.95 
3.94 3.94 3.94 3.94 3.94 3.94 3.93 3.94 3.94 
3.94 3.95 3.96 3.97 3.98 3.99 4.01 4.02 4.03 
4.04 4.05 4.06 4.07 4.07 4.07 4.08 4.08 4.08 
4.08 4.08 4.08 4.08 4.08 4.08 4.08 4.08 4.08 
4.08 4.08 4.08 4.07 4.07 4.07 4.06 4.06 4.05 
4.04 4.03 4.02 4.01 4.00 3.99 3.98 3.97 3.96 
3.96 3.96 3.95 3.95 3.95 3.95 3.94 3.94 3.93 
3.93 3.92 3.91 3.90 3.89 3.88 3.87 3.86 3.86 
3.85 3.85 3.85 3.85 3.84 3.84 3.84 3.83 3.83 
3.83 3.83 3.83 3.83 3.84 3.85 3.86 3.87 3.88 
3.89 3.89 3.90 3.91 3.91 3.91 3.91 3.91 3.91 
3.91 3.91 3.90 3.90 3.89 3.89 3.88 3.87 3.87 
3.86 3.86 3.86 3.86 3.86 3.87 3.88 3.89 3.90 
3.91 3.92 3.92 3.93 3.93 3.93 3.93 3.93 3.92 
3.92 3.92 3.91 3.91 3.90 3.90 3.90 3.90 3.90 
3.89 3.89 3.89 3.88 3.88 3.88 3.88 3.88 3.88 
3.88 3.88 3.89 3.89 3.90 3.91 3.92 3.92 3.93 
3.94 3.95 3.96 3.96 3.97 3.98 3.98 3.99 4.00 
4.01 4.02 4.03 4.04 4.05 4.06 4.06 4.07 4.07 
4.07 4.08 4.08 4.08 4.08 4.08 4.08 4.08 4.08 
4.08 4.08 4.08 4.08 4.08 4.08 4.08 4.07 4.07 
4.07 4.07 4.06 4.05 4.05 4.04 4.03 4.02 4.01 
4.00 3.99 3.99 3.98 3.98 3.97 3.97 3.97 3.97 
3.96 3.96 3.96 3.96 3.96 3.96 3.95 3.95 3.95 
3.95 3.95 3.95 3.95 3.95 3.95 3.95 3.95 3.95 
3.95 3.95 3.95 3.95 3.95 3.95 3.95 3.95 3.95 
3.95 3.95 3.95 3.95 3.95 3.95 3.95 3.95 3.95 
3.95 3.94 3.94 3.94 3.94 3.94 3.94 3.94 3.94 
3.93 3.93 3.92 3.91 3.91 3.90 3.89 3.88 3.87 
3.87 3.86 3.85 3.85 3.85 3.85 3.84 3.84 3.84 
3.84 3.85 3.85 3.85 3.85 3.85 3.86 3.86 3.86 
3.87 3.87 3.87 3.88 3.88 3.88 3.88 3.88 3.88 
3.88 3.88 3.87 3.87 3.86 3.86 3.86 3.85 3.85 
3.85 3.85 3.85 3.85 3.85 3.86 3.86 3.86 3.87 
3.87 3.88 3.88 3.88 3.88 3.88 3.88 3.88 3.88 
3.88 3.87 3.87 3.87 3.87 3.86 3.86 3.86 3.86 
3.86 3.86 3.86 3.86 3.87 3.87 3.88 3.89 3.90 
3.91 3.92 3.93 3.94 3.94 3.95 3.95 3.95 3.95 
3.95 3.95 3.95 3.95 3.95 3.95 3.95 3.95 3.95 
3.95 3.95 3.95 3.95 3.95 3.95 3.95 3.96 3.96 
3.97 3.98 3.99 4.00 4.01 4.02 4.03 4.03 4.03 
4.03 4.03 4.02 4.02 4.01 3.99 3.98 3.97 3.96 
3.95 3.94 3.94 3.94 3.94 3.94 3.94 3.94 3.94 
3.94 3.94 3.94 3.95 3.95 3.95 3.95 3.95 3.95 
3.94 3.94 3.94 3.94 3.94 3.94 3.94 3.94 3.94 
3.94 3.94 3.94 3.94 3.94 3.94 3.94 3.94 3.94 
3.94 3.94 3.94 3.94 3.94 3.95 3.95 3.95 3.95 
3.95 3.96 3.96 3.97 3.97 3.98 3.99 4.00 4.01 
4.02 4.03 4.04 4.05 4.06 4.06 4.07 4.07 4.07 
4.08 4.08 4.08 4.08 4.08 4.08 4.08 4.08 4.08 
4.08 4.08 4.08 4.08 4.08 4.07 4.07 4.07 4.06 
4.05 4.05 4.04 4.03 4.02 4.01 4.00 3.99 3.98 
3.98 3.98 3.97 3.97 3.97 3.97 3.97 3.97 3.96 
3.96 3.96 3.95 3.95 3.95 3.95 3.96 3.96 3.96 
3.97 3.97 3.98 3.98 3.98 3.97 3.97 3.96 3.95 
3.93 3.92 3.91 3.89 3.88 3.87 3.86 3.86 3.85 
3.85 3.84 3.84 3.84 3.84 3.84 3.84 3.84 3.84 
3.84 3.84 3.85 3.86 3.87 3.87 3.88 3.89 3.90 
3.91 3.91 3.92 3.92 3.92 3.92 3.92 3.91 3.91 
3.90 3.90 3.89 3.88 3.88 3.87 3.87 3.86 3.86 
3.86 3.86 3.86 3.86 3.86 3.87 3.87 3.88 3.89 
3.90 3.91 3.92 3.93 3.93 3.94 3.95 3.95 3.95 
3.95 3.95 3.94 3.94 3.93 3.92 3.91 3.91 3.90 
3.90 3.90 3.90 3.90 3.91 3.91 3.92 3.92 3.93 
3.94 3.95 3.96 3.97 3.98 3.99 4.00 4.00 4.01 
4.01 4.01 4.01 4.00 4.00 3.99 3.98 3.97 3.97 
3.97 3.96 3.96 3.97 3.97 3.98 3.99 4.00 4.01 
4.02 4.03 4.04 4.04 4.05 4.06 4.06 4.07 4.07 
4.07 4.08 4.08 4.08 4.08 4.08 4.08 4.08 4.08 
4.08 4.08 4.08 4.08 4.08 4.08 4.08 4.08 4.08 
4.08 4.08 4.08 4.08 4.08 4.08 4.08 4.08 4.08 
4.08 4.08 4.08 4.08 4.08 4.08 4.08 4.08 4.08 
4.08 4.08 4.08 4.08 4.08 4.08 4.08 4.08 4.08 
4.08 4.08 4.08 4.08 4.08 4.08 4.08 4.08 4.08 
4.08 4.08 4.08 4.08 4.08 4.08 4.08 4.08 4.08 
4.08 4.08 4.08 4.08 4.08 4.08 4.08 4.08 4.08 
4.08 4.08 4.08 4.08 4.08 4.08 4.08 4.08 4.08 
4.08 4.08 4.08 4.08 4.08 4.08 4.08 4.08 4.08 
4.08 4.08 4.08 4.08 4.08 4.08 4.08 
