# vtk DataFile Version 3.0
vtk output
ASCII
DATASET POLYDATA
POINTS 1150 float
24.13 8.50 -604.26 28.39 8.50 -604.26 33.12 8.50 -604.26 
38.19 8.50 -604.26 43.47 8.50 -604.26 48.91 8.50 -604.26 
54.46 8.50 -604.25 60.10 8.50 -604.25 65.80 8.50 -604.25 
71.56 8.50 -604.24 77.35 8.50 -604.23 83.17 8.50 -604.20 
88.99 8.50 -604.16 94.82 8.50 -604.10 100.65 8.50 -603.99 
106.47 8.50 -603.83 112.27 8.49 -603.60 118.05 8.49 -603.25 
123.79 8.49 -602.76 129.47 8.49 -602.09 135.08 8.49 -601.18 
140.58 8.48 -599.99 145.94 8.48 -598.48 151.11 8.48 -596.59 
156.04 8.48 -594.30 160.70 8.48 -591.59 165.02 8.48 -588.44 
168.97 8.48 -584.87 172.51 8.48 -580.89 175.62 8.49 -576.54 
178.31 8.49 -571.86 180.58 8.49 -566.91 182.44 8.49 -561.73 
183.95 8.49 -556.38 185.13 8.50 -550.89 186.03 8.50 -545.32 
186.71 8.50 -539.68 187.20 8.50 -534.00 187.55 8.50 -528.29 
187.80 8.50 -522.57 187.96 8.50 -516.84 188.07 8.50 -511.10 
188.14 8.50 -505.35 188.18 8.50 -499.59 188.21 8.50 -493.83 
188.23 8.50 -488.05 188.24 8.50 -482.27 188.24 8.50 -476.47 
188.25 8.50 -470.66 188.25 8.50 -464.84 188.25 8.50 -459.01 
188.25 8.50 -453.17 188.25 8.50 -447.32 188.25 8.50 -441.47 
188.25 8.50 -435.61 188.25 8.50 -429.75 188.25 8.50 -423.89 
188.25 8.50 -418.02 188.25 8.50 -412.16 188.25 8.50 -406.29 
188.25 8.50 -400.43 188.25 8.50 -394.58 188.25 8.50 -388.72 
188.25 8.50 -382.87 188.25 8.50 -377.02 188.25 8.50 -371.18 
188.25 8.50 -365.34 188.25 8.50 -359.50 188.25 8.50 -353.66 
188.25 8.50 -347.82 188.25 8.50 -341.98 188.25 8.50 -336.15 
188.25 8.50 -330.31 188.25 8.50 -324.47 188.25 8.50 -318.63 
188.25 8.50 -312.78 188.25 8.50 -306.94 188.25 8.50 -301.09 
188.25 8.50 -295.23 188.25 8.50 -289.38 188.25 8.50 -283.52 
188.25 8.50 -277.66 188.25 8.50 -271.80 188.25 8.50 -265.94 
188.25 8.50 -260.08 188.25 8.50 -254.21 188.25 8.50 -248.35 
188.25 8.50 -242.48 188.25 8.50 -236.62 188.25 8.50 -230.75 
188.25 8.50 -224.88 188.25 8.50 -219.01 188.25 8.50 -213.14 
188.25 8.50 -207.26 188.25 8.50 -201.37 188.26 8.50 -195.48 
188.26 8.50 -189.58 188.28 8.50 -183.66 188.30 8.50 -177.73 
188.33 8.50 -171.80 188.39 8.50 -165.85 188.48 8.50 -159.91 
188.62 8.50 -153.97 188.85 8.50 -148.07 189.18 8.50 -142.21 
189.66 8.50 -136.44 190.33 8.51 -130.80 191.25 8.51 -125.33 
192.46 8.51 -120.10 194.02 8.51 -115.18 195.98 8.52 -110.66 
198.35 8.52 -106.61 201.14 8.52 -103.14 204.35 8.52 -100.34 
207.92 8.52 -98.29 211.78 8.52 -97.06 215.83 8.52 -96.70 
219.97 8.52 -97.26 224.05 8.51 -98.72 227.98 8.50 -101.06 
231.64 8.50 -104.22 234.94 8.49 -108.12 237.82 8.49 -112.65 
240.27 8.48 -117.71 242.27 8.48 -123.17 243.86 8.48 -128.92 
245.07 8.48 -134.88 245.97 8.48 -140.94 246.61 8.49 -147.06 
247.04 8.49 -153.19 247.33 8.49 -159.30 247.51 8.49 -165.38 
247.62 8.49 -171.42 247.68 8.50 -177.43 247.72 8.50 -183.41 
247.74 8.50 -189.37 247.74 8.50 -195.32 247.75 8.50 -201.26 
247.75 8.50 -207.20 247.75 8.50 -213.13 247.75 8.50 -219.07 
247.75 8.50 -225.01 247.75 8.50 -230.96 247.75 8.50 -236.91 
247.75 8.50 -242.86 247.75 8.50 -248.82 247.75 8.50 -254.77 
247.75 8.50 -260.73 247.75 8.50 -266.69 247.75 8.50 -272.66 
247.75 8.50 -278.62 247.75 8.50 -284.58 247.75 8.50 -290.54 
247.75 8.50 -296.50 247.75 8.50 -302.46 247.75 8.50 -308.43 
247.75 8.50 -314.39 247.75 8.50 -320.35 247.75 8.50 -326.32 
247.75 8.50 -332.28 247.75 8.50 -338.25 247.75 8.50 -344.22 
247.75 8.50 -350.19 247.75 8.50 -356.17 247.75 8.50 -362.14 
247.75 8.50 -368.12 247.75 8.50 -374.09 247.75 8.50 -380.07 
247.75 8.50 -386.03 247.75 8.50 -392.00 247.75 8.50 -397.96 
247.75 8.50 -403.91 247.75 8.50 -409.85 247.75 8.50 -415.78 
247.75 8.50 -421.71 247.75 8.50 -427.62 247.75 8.50 -433.51 
247.75 8.50 -439.40 247.75 8.50 -445.27 247.75 8.50 -451.12 
247.75 8.50 -456.96 247.75 8.50 -462.79 247.75 8.50 -468.60 
247.75 8.50 -474.40 247.76 8.50 -480.18 247.77 8.50 -485.95 
247.78 8.50 -491.71 247.80 8.50 -497.46 247.83 8.50 -503.19 
247.88 8.50 -508.91 247.97 8.50 -514.62 248.09 8.50 -520.31 
248.29 8.50 -525.99 248.57 8.50 -531.65 248.97 8.50 -537.29 
249.53 8.50 -542.88 250.29 8.50 -548.42 251.29 8.50 -553.88 
252.60 8.50 -559.24 254.26 8.49 -564.45 256.30 8.49 -569.48 
258.78 8.49 -574.28 261.72 8.49 -578.80 265.12 8.49 -582.99 
268.99 8.50 -586.81 273.30 8.50 -590.23 278.02 8.50 -593.21 
283.10 8.50 -595.76 288.48 8.50 -597.87 294.10 8.51 -599.56 
299.90 8.51 -600.83 305.83 8.51 -601.73 311.82 8.51 -602.28 
317.83 8.51 -602.48 323.83 8.51 -602.35 329.76 8.51 -601.88 
335.60 8.51 -601.06 341.31 8.51 -599.86 346.84 8.51 -598.26 
352.14 8.51 -596.23 357.17 8.51 -593.74 361.88 8.51 -590.78 
366.23 8.51 -587.34 370.16 8.51 -583.45 373.66 8.50 -579.12 
376.71 8.50 -574.41 379.30 8.50 -569.37 381.46 8.50 -564.04 
383.21 8.50 -558.48 384.60 8.50 -552.76 385.66 8.50 -546.91 
386.46 8.50 -540.97 387.04 8.50 -534.98 387.45 8.50 -528.96 
387.74 8.50 -522.91 387.93 8.50 -516.86 388.05 8.50 -510.81 
388.13 8.50 -504.77 388.18 8.50 -498.73 388.21 8.50 -492.70 
388.23 8.50 -486.67 388.24 8.50 -480.66 388.24 8.50 -474.65 
388.25 8.50 -468.64 388.25 8.50 -462.64 388.25 8.50 -456.65 
388.25 8.50 -450.65 388.25 8.50 -444.66 388.25 8.50 -438.66 
388.25 8.50 -432.66 388.25 8.50 -426.65 388.25 8.50 -420.63 
388.25 8.50 -414.60 388.25 8.50 -408.57 388.25 8.50 -402.51 
388.25 8.50 -396.45 388.25 8.50 -390.37 388.25 8.50 -384.27 
388.25 8.50 -378.16 388.25 8.50 -372.04 388.25 8.50 -365.90 
388.25 8.50 -359.75 388.25 8.50 -353.59 388.25 8.50 -347.42 
388.25 8.50 -341.24 388.25 8.50 -335.05 388.25 8.50 -328.85 
388.25 8.50 -322.64 388.25 8.50 -316.43 388.25 8.50 -310.22 
388.25 8.50 -304.00 388.25 8.50 -297.79 388.25 8.50 -291.57 
388.25 8.50 -285.35 388.25 8.50 -279.14 388.25 8.50 -272.93 
388.25 8.50 -266.73 388.25 8.50 -260.54 388.25 8.50 -254.35 
388.25 8.50 -248.18 388.25 8.50 -242.01 388.25 8.50 -235.86 
388.25 8.50 -229.72 388.25 8.50 -223.59 388.25 8.50 -217.47 
388.25 8.50 -211.36 388.25 8.50 -205.26 388.26 8.50 -199.16 
388.27 8.50 -193.07 388.28 8.50 -186.98 388.30 8.50 -180.89 
388.35 8.50 -174.80 388.42 8.50 -168.71 388.53 8.50 -162.62 
388.71 8.50 -156.54 388.99 8.50 -150.48 389.40 8.51 -144.48 
390.00 8.51 -138.56 390.83 8.51 -132.78 391.97 8.51 -127.18 
393.47 8.52 -121.86 395.38 8.52 -116.91 397.75 8.52 -112.42 
400.58 8.52 -108.51 403.87 8.52 -105.30 407.57 8.52 -102.88 
411.59 8.52 -101.35 415.83 8.52 -100.78 420.15 8.51 -101.20 
424.41 8.51 -102.60 428.47 8.51 -104.96 432.22 8.50 -108.19 
435.56 8.50 -112.19 438.44 8.50 -116.86 440.84 8.50 -122.06 
442.77 8.49 -127.67 444.27 8.49 -133.58 445.39 8.50 -139.68 
446.21 8.50 -145.91 446.77 8.50 -152.18 447.15 8.50 -158.48 
447.40 8.50 -164.75 447.55 8.50 -171.00 447.64 8.50 -177.20 
447.69 8.50 -183.36 447.72 8.50 -189.48 447.74 8.50 -195.55 
447.74 8.50 -201.59 447.75 8.50 -207.59 447.75 8.50 -213.56 
447.75 8.50 -219.50 447.75 8.50 -225.41 447.75 8.50 -231.30 
447.75 8.50 -237.17 447.75 8.50 -243.03 447.75 8.50 -248.88 
447.75 8.50 -254.72 447.75 8.50 -260.56 447.75 8.50 -266.39 
447.75 8.50 -272.23 447.75 8.50 -278.08 447.75 8.50 -283.93 
447.75 8.50 -289.80 447.75 8.50 -295.68 447.75 8.50 -301.58 
447.75 8.50 -307.50 447.75 8.50 -313.43 447.75 8.50 -319.38 
447.75 8.50 -325.35 447.75 8.50 -331.34 447.75 8.50 -337.34 
447.75 8.50 -343.36 447.75 8.50 -349.39 447.75 8.50 -355.44 
447.75 8.50 -361.49 447.75 8.50 -367.56 447.75 8.50 -373.64 
447.75 8.50 -379.72 447.75 8.50 -385.81 447.75 8.50 -391.91 
447.75 8.50 -398.01 447.75 8.50 -404.11 447.75 8.50 -410.21 
447.75 8.50 -416.32 447.75 8.50 -422.42 447.75 8.50 -428.52 
447.75 8.50 -434.62 447.75 8.50 -440.72 447.75 8.50 -446.82 
447.75 8.50 -452.92 447.75 8.50 -459.02 447.75 8.50 -465.12 
447.76 8.50 -471.21 447.76 8.50 -477.31 447.77 8.50 -483.41 
447.78 8.50 -489.51 447.81 8.50 -495.61 447.85 8.50 -501.72 
447.91 8.50 -507.81 448.01 8.50 -513.91 448.17 8.50 -519.99 
448.40 8.50 -526.06 448.74 8.50 -532.10 449.22 8.50 -538.10 
449.89 8.50 -544.04 450.79 8.50 -549.89 451.98 8.49 -555.62 
453.50 8.49 -561.20 455.41 8.49 -566.58 457.75 8.49 -571.71 
460.55 8.49 -576.54 463.82 8.49 -581.04 467.58 8.49 -585.14 
471.79 8.49 -588.82 476.44 8.49 -592.06 481.47 8.49 -594.83 
486.83 8.50 -597.14 492.45 8.50 -599.01 498.27 8.50 -600.44 
504.23 8.49 -601.47 510.27 8.49 -602.12 516.34 8.49 -602.41 
522.39 8.49 -602.36 528.37 8.49 -601.97 534.26 8.49 -601.23 
540.01 8.49 -600.12 545.58 8.48 -598.61 550.93 8.48 -596.69 
556.02 8.49 -594.33 560.79 8.49 -591.51 565.20 8.49 -588.24 
569.21 8.49 -584.52 572.80 8.49 -580.38 575.93 8.50 -575.87 
578.62 8.50 -571.03 580.88 8.50 -565.93 582.72 8.50 -560.61 
584.19 8.50 -555.12 585.34 8.50 -549.52 586.21 8.50 -543.85 
586.85 8.50 -538.12 587.31 8.50 -532.36 587.63 8.50 -526.59 
587.86 8.50 -520.81 588.00 8.50 -515.03 588.10 8.50 -509.25 
588.16 8.50 -503.46 588.20 8.50 -497.68 588.22 8.50 -491.88 
588.23 8.50 -486.09 588.24 8.50 -480.29 588.24 8.50 -474.48 
588.25 8.50 -468.67 588.25 8.50 -462.85 588.25 8.50 -457.03 
588.25 8.50 -451.21 588.25 8.50 -445.37 588.25 8.50 -439.53 
588.25 8.50 -433.69 588.25 8.50 -427.84 588.25 8.50 -421.98 
588.25 8.50 -416.11 588.25 8.50 -410.23 588.25 8.50 -404.35 
588.25 8.50 -398.44 588.25 8.50 -392.53 588.25 8.50 -386.60 
588.25 8.50 -380.66 588.25 8.50 -374.69 588.25 8.50 -368.72 
588.25 8.50 -362.72 588.25 8.50 -356.71 588.25 8.50 -350.68 
588.25 8.50 -344.63 588.25 8.50 -338.58 588.25 8.50 -332.51 
588.25 8.50 -326.42 588.25 8.50 -320.33 588.25 8.50 -314.24 
588.25 8.50 -308.14 588.25 8.50 -302.04 588.25 8.50 -295.93 
588.25 8.50 -289.83 588.25 8.50 -283.74 588.25 8.50 -277.65 
588.25 8.50 -271.56 588.25 8.50 -265.49 588.25 8.50 -259.42 
588.25 8.50 -253.36 588.25 8.50 -247.31 588.25 8.50 -241.26 
588.25 8.50 -235.23 588.25 8.50 -229.20 588.25 8.50 -223.17 
588.25 8.50 -217.15 588.25 8.50 -211.12 588.25 8.50 -205.09 
588.26 8.50 -199.05 588.26 8.50 -193.00 588.27 8.50 -186.93 
588.30 8.50 -180.85 588.33 8.50 -174.75 588.39 8.50 -168.64 
588.49 8.50 -162.51 588.66 8.50 -156.39 588.91 8.50 -150.29 
[...]
POINT_DATA 1150
FIELD FieldData 1
MaximumInscribedSphereRadius 1 1150 double
1.50 1.50 1.50 1.50 1.50 1.50 1.50 1.50 1.50 
1.50 1.50 1.51 1.51 1.51 1.52 1.53 1.55 1.57 
1.59 1.62 1.65 1.69 1.73 1.76 1.79 1.82 1.83 
1.83 1.83 1.81 1.78 1.75 1.72 1.68 1.65 1.62 
1.59 1.57 1.56 1.54 1.54 1.53 1.53 1.53 1.53 
1.53 1.53 1.53 1.53 1.53 1.53 1.53 1.52 1.52 
1.52 1.52 1.52 1.52 1.52 1.52 1.52 1.52 1.52 
1.52 1.52 1.52 1.52 1.52 1.52 1.52 1.52 1.52 
1.52 1.52 1.52 1.52 1.52 1.52 1.52 1.52 1.52 
1.52 1.52 1.52 1.52 1.52 1.52 1.52 1.52 1.52 
1.52 1.52 1.52 1.52 1.52 1.52 1.52 1.52 1.53 
1.53 1.53 1.53 1.54 1.55 1.56 1.58 1.60 1.64 
1.68 1.74 1.80 1.87 1.94 2.02 2.10 2.17 2.23 
2.27 2.29 2.30 2.28 2.24 2.19 2.12 2.04 1.96 
1.88 1.81 1.74 1.68 1.64 1.60 1.57 1.55 1.53 
1.52 1.51 1.51 1.51 1.50 1.50 1.50 1.50 1.50 
1.50 1.50 1.50 1.50 1.50 1.50 1.50 1.50 1.50 
1.50 1.50 1.50 1.50 1.50 1.50 1.50 1.50 1.50 
1.50 1.50 1.50 1.50 1.50 1.50 1.50 1.50 1.50 
1.50 1.50 1.50 1.50 1.50 1.50 1.50 1.50 1.50 
1.50 1.50 1.50 1.50 1.50 1.50 1.50 1.50 1.51 
1.51 1.51 1.52 1.53 1.54 1.55 1.57 1.60 1.63 
1.67 1.72 1.77 1.82 1.87 1.92 1.95 1.98 2.00 
2.00 1.99 1.97 1.95 1.92 1.90 1.88 1.88 1.88 
1.90 1.92 1.95 1.99 2.02 2.05 2.06 2.06 2.05 
2.02 1.98 1.93 1.87 1.81 1.76 1.70 1.66 1.62 
1.58 1.56 1.54 1.53 1.52 1.51 1.51 1.51 1.51 
1.50 1.50 1.50 1.50 1.50 1.50 1.50 1.50 1.50 
1.50 1.50 1.50 1.50 1.50 1.50 1.50 1.50 1.50 
1.50 1.50 1.50 1.50 1.50 1.50 1.50 1.50 1.50 
1.50 1.50 1.50 1.50 1.50 1.50 1.50 1.50 1.50 
1.50 1.50 1.50 1.50 1.50 1.50 1.50 1.50 1.50 
1.50 1.50 1.50 1.51 1.51 1.52 1.52 1.54 1.55 
1.58 1.61 1.65 1.71 1.77 1.85 1.93 2.02 2.12 
2.20 2.28 2.33 2.37 2.38 2.36 2.32 2.26 2.18 
2.09 2.00 1.90 1.82 1.74 1.68 1.63 1.59 1.56 
1.54 1.53 1.52 1.52 1.51 1.51 1.51 1.51 1.51 
1.51 1.51 1.51 1.51 1.51 1.51 1.51 1.51 1.51 
1.51 1.51 1.51 1.51 1.51 1.51 1.51 1.51 1.51 
1.51 1.51 1.51 1.51 1.51 1.51 1.51 1.51 1.51 
1.51 1.51 1.51 1.51 1.51 1.51 1.51 1.51 1.51 
1.51 1.51 1.51 1.51 1.51 1.52 1.52 1.52 1.53 
1.54 1.55 1.57 1.59 1.63 1.67 1.71 1.77 1.83 
1.90 1.96 2.02 2.08 2.12 2.15 2.17 2.17 2.16 
2.13 2.09 2.05 2.00 1.95 1.92 1.89 1.88 1.88 
1.89 1.92 1.95 1.99 2.02 2.04 2.05 2.04 2.02 
1.98 1.93 1.87 1.81 1.75 1.70 1.65 1.61 1.58 
1.55 1.53 1.52 1.51 1.51 1.50 1.50 1.50 1.50 
1.50 1.50 1.50 1.50 1.50 1.50 1.50 1.50 1.50 
1.50 1.50 1.50 1.50 1.50 1.50 1.50 1.50 1.50 
1.50 1.50 1.50 1.50 1.50 1.50 1.50 1.50 1.50 
1.50 1.50 1.50 1.50 1.50 1.50 1.50 1.50 1.50 
1.50 1.50 1.50 1.50 1.50 1.50 1.50 1.50 1.50 
1.50 1.50 1.51 1.51 1.51 1.52 1.53 1.54 1.56 
1.58 1.60 1.64 1.69 1.74 1.81 1.89 1.97 2.07 
2.16 2.25 2.33 2.39 2.44 2.46 2.47 2.46 2.43 
2.38 2.33 2.28 2.22 2.17 2.13 2.09 2.06 2.04 
2.03 2.01 2.01 2.00 2.00 1.99 1.99 1.99 1.99 
1.99 1.99 1.99 1.99 1.98 1.98 1.98 1.98 1.98 
1.98 1.98 1.98 1.98 1.99 1.99 1.99 1.99 1.99 
1.99 1.99 1.99 1.99 1.99 1.99 1.99 1.99 1.99 
1.99 1.99 1.99 1.99 1.99 1.99 1.99 1.99 1.99 
1.99 1.99 1.99 1.99 1.99 1.99 2.00 2.00 2.00 
2.01 2.02 2.04 2.06 2.08 2.11 2.14 2.18 2.23 
2.27 2.31 2.35 2.39 2.42 2.44 2.45 2.45 2.45 
2.44 2.43 2.41 2.40 2.38 2.37 2.37 2.36 2.36 
2.36 2.35 2.34 2.31 2.28 2.23 2.17 2.10 2.03 
1.96 1.89 1.82 1.76 1.70 1.66 1.62 1.59 1.57 
1.55 1.54 1.53 1.52 1.51 1.51 1.51 1.51 1.51 
1.51 1.51 1.51 1.51 1.51 1.51 1.51 1.51 1.51 
1.51 1.50 1.50 1.50 1.50 1.50 1.51 1.51 1.51 
1.51 1.51 1.51 1.51 1.52 1.53 1.53 1.55 1.56 
1.59 1.61 1.64 1.67 1.71 1.75 1.78 1.82 1.85 
1.88 1.91 1.93 1.95 1.97 1.98 1.98 1.99 1.99 
2.00 2.01 2.02 2.03 2.06 2.09 2.13 2.18 2.23 
2.30 2.36 2.42 2.48 2.53 2.56 2.57 2.57 2.54 
2.50 2.44 2.37 2.29 2.20 2.11 2.02 1.94 1.86 
1.79 1.72 1.67 1.63 1.59 1.57 1.55 1.53 1.52 
1.52 1.51 1.51 1.51 1.51 1.51 1.51 1.51 1.51 
1.51 1.51 1.51 1.51 1.51 1.51 1.51 1.51 1.51 
1.51 1.51 1.51 1.51 1.51 1.51 1.51 1.51 1.51 
1.51 1.51 1.51 1.51 1.51 1.51 1.51 1.51 1.51 
1.51 1.51 1.51 1.51 1.51 1.51 1.51 1.51 1.51 
1.51 1.51 1.51 1.51 1.51 1.51 1.51 1.51 1.51 
1.52 1.52 1.52 1.52 1.52 1.53 1.54 1.56 1.58 
1.61 1.64 1.68 1.73 1.79 1.85 1.91 1.96 2.01 
2.06 2.10 2.13 2.15 2.18 2.19 2.22 2.24 2.26 
2.29 2.32 2.34 2.36 2.37 2.37 2.36 2.34 2.30 
2.26 2.22 2.18 2.14 2.10 2.07 2.05 2.03 2.02 
2.01 2.00 2.00 2.00 2.00 2.00 2.00 2.00 2.00 
2.00 2.00 2.00 2.00 2.00 2.00 2.00 2.00 2.00 
2.00 2.00 2.00 2.00 2.00 2.00 2.00 2.00 2.00 
2.00 2.00 2.00 2.00 2.00 2.00 2.00 2.00 2.00 
2.00 2.00 2.00 2.00 2.00 2.00 2.00 2.00 2.00 
2.00 2.00 2.00 2.00 2.00 2.00 2.01 2.01 2.02 
2.03 2.05 2.08 2.11 2.15 2.20 2.25 2.31 2.36 
2.42 2.46 2.50 2.52 2.52 2.50 2.46 2.41 2.36 
2.30 2.23 2.18 2.12 2.08 2.05 2.03 2.01 2.00 
1.99 1.99 1.99 1.99 1.99 1.99 1.99 1.99 1.99 
1.99 1.99 1.99 1.99 1.99 1.99 2.00 2.00 2.00 
2.00 2.00 2.00 2.00 2.00 2.00 2.00 2.00 2.00 
2.00 2.00 2.00 2.00 2.00 1.99 1.99 1.99 1.99 
1.99 1.99 1.99 1.99 1.99 1.99 1.99 1.99 1.99 
1.99 1.99 1.99 1.99 1.99 1.99 1.99 1.99 1.99 
2.00 2.00 2.01 2.02 2.03 2.05 2.07 2.10 2.14 
2.18 2.22 2.26 2.30 2.33 2.36 2.37 2.37 2.37 
2.35 2.33 2.31 2.29 2.28 2.28 2.28 2.28 2.29 
2.30 2.30 2.30 2.28 2.24 2.20 2.14 2.07 1.99 
1.91 1.84 1.77 1.71 1.66 1.62 1.59 1.57 1.55 
1.53 1.53 1.52 1.52 1.51 1.51 1.51 1.51 1.51 
1.51 1.51 1.51 1.51 1.51 1.51 1.51 1.51 1.51 
1.51 1.51 1.51 1.51 1.51 1.51 1.51 1.51 1.51 
1.51 1.51 1.51 1.51 1.51 1.51 1.51 1.51 1.51 
1.51 1.51 1.50 1.50 1.50 1.50 1.51 1.51 1.51 
1.51 1.51 1.51 1.51 1.51 1.51 1.51 1.51 1.51 
1.51 1.52 1.52 1.53 1.54 1.55 1.58 1.61 1.65 
1.70 1.77 1.84 1.93 2.03 2.14 2.25 2.35 2.44 
2.52 2.57 2.61 2.61 2.60 2.56 2.51 2.45 2.38 
2.31 2.25 2.19 2.14 2.10 2.06 2.04 2.02 2.01 
2.00 2.00 1.99 1.99 1.99 1.99 1.99 1.99 1.99 
1.99 1.99 1.99 1.99 1.99 1.99 1.99 1.99 1.99 
1.99 1.99 1.99 1.99 1.99 1.99 1.99 1.99 1.99 
1.99 1.99 1.99 1.99 1.99 1.98 1.98 1.98 1.98 
1.99 1.99 1.99 1.99 1.99 1.99 1.99 1.99 1.99 
1.99 1.99 1.99 1.99 1.99 1.99 2.00 2.00 2.01 
2.01 2.02 2.04 2.05 2.07 2.10 2.12 2.15 2.17 
2.18 2.19 2.18 2.16 2.12 2.08 2.02 1.95 1.89 
1.82 1.76 1.70 1.66 1.62 1.50 1.59 
