# vtk DataFile Version 3.0
vtk output
ASCII
DATASET POLYDATA
POINTS 14 float
1875.32 -283.36 958.69 1873.25 -282.91 960.83 1871.00 -282.38 963.19 
1868.68 -281.81 965.65 1866.39 -281.23 968.13 1864.16 -280.69 970.57 
1862.03 -280.24 972.96 1860.01 -279.90 975.31 1858.11 -279.67 977.64 
1856.37 -279.55 979.91 1854.82 -279.51 982.05 1853.48 -279.51 983.96 
1881.09 -284.35 952.85 1850.07 -279.59 988.99 
LINES 1 15
14 13 11 10 9 8 7 6 5 4 3 2 1 0 12 
POINT_DATA 14
FIELD FieldData 1
MaximumInscribedSphereRadius 1 14 double
33.59 34.08 34.90 36.14 37.86 40.05 42.64 45.50 48.43 
51.23 53.72 55.76 33.33 57.32 
