# vtk DataFile Version 3.0
vtk output
ASCII
DATASET POLYDATA
POINTS 120 float
-3.40 -4.54 -332.97 -5.29 -4.54 -332.97 -7.39 -4.54 -332.97 
-9.65 -4.54 -332.97 -12.02 -4.54 -332.97 -14.47 -4.54 -332.97 
-16.97 -4.54 -332.97 -19.53 -4.54 -332.97 -22.13 -4.54 -332.97 
-24.77 -4.54 -332.97 -27.45 -4.54 -332.97 -30.14 -4.54 -332.97 
-32.86 -4.54 -332.97 -35.60 -4.54 -332.97 -38.35 -4.54 -332.97 
-41.11 -4.54 -332.97 -43.88 -4.54 -332.97 -46.65 -4.54 -332.97 
-49.44 -4.54 -332.97 -52.22 -4.54 -332.97 -55.02 -4.54 -332.97 
-57.81 -4.54 -332.97 -60.61 -4.54 -332.97 -63.41 -4.54 -332.97 
-66.21 -4.54 -332.97 -69.02 -4.54 -332.97 -71.81 -4.54 -332.97 
-74.61 -4.54 -332.97 -77.41 -4.54 -332.97 -80.20 -4.54 -332.97 
-82.99 -4.54 -332.97 -85.77 -4.54 -332.97 -88.55 -4.54 -332.97 
-91.32 -4.54 -332.97 -94.08 -4.54 -332.97 -96.84 -4.54 -332.97 
-99.59 -4.54 -332.97 -102.34 -4.54 -332.97 -105.07 -4.54 -332.97 
-107.80 -4.54 -332.97 -110.52 -4.54 -332.97 -113.23 -4.54 -332.97 
-115.93 -4.54 -332.97 -118.62 -4.54 -332.97 -121.30 -4.54 -332.97 
-123.97 -4.54 -332.97 -126.64 -4.54 -332.97 -129.30 -4.54 -332.97 
-131.96 -4.54 -332.97 -134.61 -4.54 -332.97 -137.27 -4.54 -332.97 
-139.93 -4.54 -332.97 -142.60 -4.54 -332.97 -145.27 -4.54 -332.97 
-147.96 -4.54 -332.97 -150.66 -4.54 -332.97 -153.37 -4.54 -332.97 
-156.09 -4.54 -332.97 -158.80 -4.54 -332.97 -161.52 -4.54 -332.97 
-164.22 -4.54 -332.97 -166.91 -4.54 -332.97 -169.58 -4.54 -332.97 
-172.22 -4.54 -332.97 -174.85 -4.54 -332.97 -177.45 -4.54 -332.97 
-180.03 -4.54 -332.97 -182.60 -4.54 -332.97 -185.15 -4.54 -332.97 
-187.70 -4.54 -332.97 -190.24 -4.54 -332.97 -192.78 -4.54 -332.97 
-195.32 -4.54 -332.97 -197.86 -4.54 -332.97 -200.42 -4.54 -332.97 
-202.97 -4.54 -332.97 -205.54 -4.54 -332.97 -208.11 -4.54 -332.97 
-210.69 -4.54 -332.97 -213.28 -4.54 -332.97 -215.88 -4.54 -332.97 
-218.49 -4.54 -332.97 -221.11 -4.54 -332.97 -223.74 -4.54 -332.97 
-226.38 -4.54 -332.97 -229.03 -4.54 -332.97 -231.70 -4.54 -332.97 
-234.37 -4.54 -332.97 -237.05 -4.54 -332.97 -239.74 -4.54 -332.97 
-242.44 -4.54 -332.97 -245.14 -4.54 -332.97 -247.84 -4.54 -332.97 
-250.55 -4.54 -332.97 -253.27 -4.54 -332.97 -255.98 -4.54 -332.97 
-258.69 -4.54 -332.97 -261.39 -4.54 -332.97 -264.10 -4.54 -332.97 
-266.80 -4.54 -332.97 -269.49 -4.54 -332.97 -272.18 -4.54 -332.97 
-274.85 -4.54 -332.97 -277.52 -4.54 -332.97 -280.18 -4.54 -332.97 
-282.83 -4.54 -332.97 -285.47 -4.54 -332.97 -288.09 -4.54 -332.97 
-290.69 -4.54 -332.97 -293.26 -4.54 -332.97 -295.80 -4.54 -332.97 
-298.30 -4.54 -332.97 -300.75 -4.54 -332.97 -303.16 -4.54 -332.97 
-305.48 -4.54 -332.97 -307.71 -4.54 -332.97 -309.79 -4.54 -332.97 
-311.66 -4.54 -332.97 2.00 -4.54 -332.97 -317.00 -4.54 -332.97 

LINES 1 121
120 119 117 116 115 114 113 112 111 110 109 108 107 106 105 104 103 102 101 100 99 98 97 96 95 94 93 92 91 90 89 88 87 86 85 84 83 82 81 80 79 78 77 76 75 74 73 72 71 70 69 68 67 66 65 64 63 62 61 60 59 58 57 56 55 54 53 52 51 50 49 48 47 46 45 44 43 42 41 40 39 38 37 36 35 34 33 32 31 30 29 28 27 26 25 24 23 22 21 20 19 18 17 16 15 14 13 12 11 10 9 8 7 6 5 4 3 2 1 0 118 
POINT_DATA 120
FIELD FieldData 1
MaximumInscribedSphereRadius 1 120 double
1.50 1.50 1.50 1.50 1.50 1.50 1.50 1.50 1.50 
1.50 1.50 1.50 1.50 1.50 1.50 1.50 1.50 1.50 
1.50 1.50 1.50 1.50 1.50 1.50 1.50 1.50 1.50 
1.50 1.50 1.50 1.50 1.50 1.50 1.50 1.50 1.50 
1.50 1.50 1.50 1.50 1.50 1.50 1.50 1.50 1.50 
1.50 1.50 1.50 1.50 1.50 1.50 1.50 1.50 1.50 
1.50 1.50 1.50 1.50 1.50 1.50 1.50 1.50 1.50 
1.50 1.50 1.50 1.50 1.50 1.50 1.50 1.50 1.50 
1.50 1.50 1.50 1.50 1.50 1.50 1.50 1.50 1.50 
1.50 1.50 1.50 1.50 1.50 1.50 1.50 1.50 1.50 
1.50 1.50 1.50 1.50 1.50 1.50 1.50 1.50 1.50 
1.50 1.50 1.50 1.50 1.50 1.50 1.50 1.50 1.50 
1.50 1.50 1.50 1.50 1.50 1.50 1.50 1.50 1.50 
1.50 1.50 1.50 
