# vtk DataFile Version 3.0
vtk output
ASCII
DATASET POLYDATA
POINTS 4 float
-1.19 -0.00 -0.00 1.19 -0.00 0.00 -10.00 -0.00 -0.00 
10.00 -0.00 0.00 
LINES 1 5
4 3 1 0 2 
POINT_DATA 4
FIELD FieldData 1
MaximumInscribedSphereRadius 1 4 double
3.98 3.98 3.98 3.98 
