# vtk DataFile Version 3.0
vtk output
ASCII
DATASET POLYDATA
POINTS 30 float
4815.59 410.13 918.15 4815.65 413.51 918.23 4815.77 417.42 918.31 
4815.99 421.75 918.38 4816.37 426.40 918.41 4816.96 431.29 918.38 
4817.87 436.40 918.23 4819.23 441.71 917.93 4821.28 447.29 917.41 
4824.29 453.19 916.59 4828.59 459.45 915.39 4834.42 466.06 913.74 
4841.84 472.88 911.64 4850.63 479.62 909.13 4860.29 485.91 906.35 
4870.20 491.39 903.46 4879.79 495.79 900.63 4888.68 499.06 897.96 
4896.77 501.31 895.52 4904.16 502.79 893.31 4911.03 503.76 891.29 
4917.56 504.43 889.41 4923.83 504.96 887.61 4929.83 505.42 885.86 
4935.47 505.80 884.11 4940.60 506.11 882.39 4945.08 506.30 880.72 
4948.81 506.37 879.18 4815.56 401.56 918.00 4957.31 505.87 874.78 

LINES 1 31
30 29 27 26 25 24 23 22 21 20 19 18 17 16 15 14 13 12 11 10 9 8 7 6 5 4 3 2 1 0 28 
POINT_DATA 30
FIELD FieldData 1
MaximumInscribedSphereRadius 1 30 double
32.30 32.66 33.12 33.63 34.15 34.63 35.02 35.33 35.54 
35.68 35.75 35.76 35.74 35.69 35.65 35.64 35.66 35.71 
35.78 35.84 35.90 35.93 35.95 35.95 35.94 35.90 35.85 
35.79 32.04 35.73 
