# vtk DataFile Version 3.0
vtk output
ASCII
DATASET POLYDATA
POINTS 1156 float
1312.19 8.50 -42.26 1308.04 8.50 -42.26 1303.43 8.50 -42.26 
1298.48 8.50 -42.26 1293.30 8.50 -42.26 1287.96 8.50 -42.26 
1282.50 8.50 -42.26 1276.92 8.50 -42.26 1271.26 8.50 -42.27 
1265.53 8.50 -42.28 1259.73 8.50 -42.30 1253.89 8.50 -42.32 
1248.02 8.50 -42.37 1242.11 8.50 -42.44 1236.20 8.50 -42.56 
1230.28 8.50 -42.73 1224.36 8.50 -42.99 1218.47 8.50 -43.35 
1212.61 8.50 -43.87 1206.82 8.50 -44.58 1201.11 8.50 -45.52 
1195.52 8.50 -46.75 1190.09 8.50 -48.30 1184.87 8.50 -50.23 
1179.89 8.50 -52.56 1175.22 8.50 -55.33 1170.89 8.50 -58.53 
1166.94 8.50 -62.15 1163.41 8.50 -66.19 1160.31 8.50 -70.60 
1157.64 8.50 -75.34 1155.40 8.50 -80.35 1153.57 8.50 -85.59 
1152.10 8.50 -91.00 1150.95 8.50 -96.54 1150.07 8.50 -102.17 
1149.42 8.50 -107.85 1148.96 8.50 -113.56 1148.63 8.50 -119.30 
1148.40 8.50 -125.04 1148.25 8.50 -130.79 1148.15 8.50 -136.54 
1148.09 8.50 -142.29 1148.05 8.50 -148.04 1148.03 8.50 -153.79 
1148.02 8.50 -159.55 1148.01 8.50 -165.31 1148.01 8.50 -171.07 
1148.00 8.50 -176.84 1148.00 8.50 -182.61 1148.00 8.50 -188.38 
1148.00 8.50 -194.16 1148.00 8.50 -199.94 1148.00 8.50 -205.72 
1148.00 8.50 -211.50 1148.00 8.50 -217.29 1148.00 8.50 -223.07 
1148.00 8.50 -228.87 1148.00 8.50 -234.66 1148.00 8.50 -240.46 
1148.00 8.50 -246.26 1148.00 8.50 -252.06 1148.00 8.50 -257.87 
1148.00 8.50 -263.68 1148.00 8.50 -269.50 1148.00 8.50 -275.32 
1148.00 8.50 -281.15 1148.00 8.50 -286.98 1148.00 8.50 -292.81 
1148.00 8.50 -298.65 1148.00 8.50 -304.50 1148.00 8.50 -310.35 
1148.00 8.50 -316.20 1148.00 8.50 -322.06 1148.00 8.50 -327.93 
1148.00 8.50 -333.79 1148.00 8.50 -339.66 1148.00 8.50 -345.54 
1148.00 8.50 -351.41 1148.00 8.50 -357.29 1148.00 8.50 -363.16 
1148.00 8.50 -369.04 1148.00 8.50 -374.92 1148.00 8.50 -380.79 
1148.00 8.50 -386.67 1148.00 8.50 -392.54 1148.00 8.50 -398.41 
1148.00 8.50 -404.29 1148.00 8.50 -410.16 1148.00 8.50 -416.04 
1148.00 8.50 -421.92 1148.00 8.50 -427.81 1148.00 8.50 -433.71 
1148.00 8.50 -439.61 1147.99 8.50 -445.53 1147.99 8.50 -451.46 
1147.98 8.50 -457.41 1147.96 8.50 -463.37 1147.94 8.50 -469.34 
1147.89 8.50 -475.33 1147.82 8.50 -481.32 1147.71 8.50 -487.30 
1147.53 8.51 -493.27 1147.27 8.51 -499.20 1146.89 8.51 -505.07 
1146.34 8.52 -510.85 1145.59 8.53 -516.49 1144.58 8.53 -521.95 
1143.26 8.54 -527.15 1141.58 8.55 -532.03 1139.50 8.56 -536.49 
1136.99 8.57 -540.45 1134.07 8.57 -543.80 1130.75 8.58 -546.45 
1127.08 8.58 -548.31 1123.15 8.58 -549.31 1119.06 8.57 -549.39 
1114.91 8.56 -548.52 1110.84 8.56 -546.70 1106.97 8.55 -543.98 
1103.39 8.54 -540.41 1100.19 8.53 -536.08 1097.41 8.53 -531.11 
1095.08 8.52 -525.60 1093.18 8.51 -519.68 1091.69 8.51 -513.46 
1090.55 8.51 -507.04 1089.71 8.50 -500.49 1089.11 8.50 -493.89 
1088.70 8.50 -487.27 1088.42 8.50 -480.65 1088.25 8.50 -474.07 
1088.14 8.50 -467.51 1088.07 8.50 -460.99 1088.04 8.50 -454.49 
1088.02 8.50 -448.02 1088.01 8.50 -441.56 1088.01 8.50 -435.12 
1088.01 8.50 -428.67 1088.00 8.50 -422.24 1088.00 8.50 -415.80 
1088.00 8.50 -409.35 1087.99 8.50 -402.90 1087.99 8.50 -396.45 
1088.00 8.50 -389.99 1088.00 8.50 -383.52 1088.00 8.50 -377.04 
1088.01 8.50 -370.56 1088.01 8.50 -364.07 1088.00 8.50 -357.58 
1088.00 8.50 -351.09 1088.00 8.50 -344.60 1087.99 8.50 -338.11 
1087.99 8.50 -331.62 1088.00 8.50 -325.14 1088.00 8.50 -318.67 
1088.00 8.50 -312.20 1088.01 8.50 -305.74 1088.01 8.50 -299.28 
1088.00 8.50 -292.82 1088.00 8.50 -286.37 1088.00 8.50 -279.92 
1087.99 8.50 -273.47 1087.99 8.50 -267.02 1088.00 8.50 -260.56 
1088.00 8.50 -254.10 1088.00 8.50 -247.63 1088.01 8.50 -241.16 
1088.01 8.50 -234.69 1088.00 8.50 -228.21 1088.00 8.50 -221.73 
1088.00 8.50 -215.26 1087.99 8.50 -208.78 1087.99 8.50 -202.32 
1088.00 8.50 -195.86 1088.00 8.50 -189.42 1088.00 8.50 -183.00 
1088.00 8.50 -176.59 1087.99 8.50 -170.21 1087.98 8.50 -163.85 
1087.96 8.50 -157.51 1087.92 8.50 -151.20 1087.87 8.50 -144.92 
1087.79 8.50 -138.66 1087.66 8.50 -132.43 1087.47 8.50 -126.22 
1087.18 8.50 -120.05 1086.77 8.50 -113.92 1086.20 8.50 -107.84 
1085.41 8.50 -101.82 1084.36 8.50 -95.90 1082.99 8.50 -90.10 
1081.27 8.50 -84.47 1079.14 8.50 -79.05 1076.57 8.50 -73.90 
1073.53 8.50 -69.07 1070.02 8.50 -64.61 1066.04 8.50 -60.58 
1061.60 8.50 -57.01 1056.76 8.49 -53.91 1051.55 8.49 -51.30 
1046.03 8.49 -49.17 1040.26 8.49 -47.50 1034.30 8.49 -46.26 
1028.22 8.49 -45.42 1022.06 8.49 -44.97 1015.88 8.50 -44.87 
1009.72 8.50 -45.14 1003.64 8.50 -45.77 997.68 8.50 -46.79 
991.90 8.50 -48.21 986.34 8.50 -50.07 981.07 8.50 -52.38 
976.13 8.50 -55.16 971.57 8.50 -58.41 967.44 8.49 -62.11 
963.76 8.49 -66.24 960.55 8.49 -70.75 957.80 8.49 -75.60 
955.51 8.49 -80.74 953.63 8.49 -86.11 952.14 8.49 -91.65 
950.97 8.49 -97.34 950.09 8.49 -103.12 949.44 8.50 -108.96 
948.96 8.50 -114.85 948.63 8.50 -120.75 948.41 8.50 -126.66 
948.25 8.50 -132.57 948.16 8.50 -138.47 948.09 8.50 -144.37 
948.05 8.50 -150.25 948.03 8.50 -156.13 948.02 8.50 -161.99 
948.01 8.50 -167.85 948.01 8.50 -173.70 948.00 8.50 -179.56 
948.00 8.50 -185.40 948.00 8.50 -191.25 948.00 8.50 -197.10 
948.00 8.50 -202.95 948.00 8.50 -208.81 948.00 8.50 -214.67 
948.00 8.50 -220.53 948.00 8.50 -226.41 948.00 8.50 -232.29 
948.00 8.50 -238.18 948.00 8.50 -244.09 948.00 8.50 -250.00 
948.00 8.50 -255.93 948.00 8.50 -261.87 948.00 8.50 -267.82 
948.00 8.50 -273.78 948.00 8.50 -279.75 948.00 8.50 -285.73 
948.00 8.50 -291.71 948.00 8.50 -297.70 948.00 8.50 -303.69 
948.00 8.50 -309.68 948.00 8.50 -315.66 948.00 8.50 -321.64 
948.00 8.50 -327.61 948.00 8.50 -333.57 948.00 8.50 -339.52 
948.00 8.50 -345.46 948.00 8.50 -351.39 948.00 8.50 -357.31 
948.00 8.50 -363.22 948.00 8.50 -369.12 948.00 8.50 -375.02 
948.00 8.50 -380.91 948.00 8.50 -386.80 948.00 8.50 -392.69 
948.00 8.50 -398.59 948.00 8.50 -404.49 948.00 8.50 -410.40 
948.00 8.50 -416.32 948.00 8.50 -422.25 948.00 8.50 -428.19 
948.00 8.50 -434.14 948.00 8.50 -440.11 948.00 8.50 -446.08 
947.99 8.50 -452.06 947.98 8.50 -458.04 947.97 8.50 -464.03 
947.94 8.50 -470.02 947.90 8.50 -476.01 947.83 8.50 -481.98 
947.72 8.50 -487.93 947.54 8.50 -493.86 947.27 8.50 -499.74 
946.87 8.50 -505.55 946.29 8.50 -511.26 945.48 8.51 -516.83 
944.38 8.51 -522.21 942.93 8.51 -527.32 941.09 8.51 -532.10 
938.81 8.52 -536.44 936.07 8.52 -540.25 932.90 8.52 -543.42 
929.31 8.52 -545.85 925.40 8.52 -547.45 921.26 8.53 -548.15 
917.00 8.53 -547.91 912.78 8.53 -546.71 908.71 8.53 -544.56 
904.91 8.52 -541.51 901.48 8.52 -537.63 898.48 8.52 -533.03 
895.94 8.52 -527.81 893.87 8.52 -522.09 892.22 8.52 -515.97 
890.95 8.51 -509.57 890.01 8.51 -502.96 889.33 8.51 -496.22 
888.85 8.50 -489.42 888.53 8.50 -482.58 888.32 8.50 -475.75 
888.18 8.50 -468.93 888.10 8.50 -462.13 888.06 8.50 -455.37 
888.03 8.50 -448.64 888.02 8.50 -441.94 888.01 8.50 -435.27 
888.01 8.50 -428.63 888.01 8.50 -422.00 888.00 8.50 -415.40 
888.00 8.50 -408.81 887.99 8.50 -402.23 887.99 8.50 -395.66 
888.00 8.50 -389.10 888.00 8.50 -382.55 888.00 8.50 -376.01 
888.01 8.50 -369.47 888.01 8.50 -362.93 888.00 8.50 -356.40 
888.00 8.50 -349.87 888.00 8.50 -343.34 887.99 8.50 -336.82 
887.99 8.50 -330.29 888.00 8.50 -323.76 888.00 8.50 -317.23 
888.00 8.50 -310.70 888.01 8.50 -304.16 888.01 8.50 -297.61 
888.00 8.50 -291.06 888.00 8.50 -284.50 888.00 8.50 -277.93 
887.99 8.50 -271.35 887.99 8.50 -264.76 888.00 8.50 -258.17 
888.00 8.50 -251.57 888.00 8.50 -244.96 888.01 8.50 -238.35 
888.01 8.50 -231.74 888.00 8.50 -225.12 888.00 8.50 -218.50 
888.00 8.50 -211.88 887.99 8.50 -205.26 887.99 8.50 -198.64 
887.99 8.50 -192.02 888.00 8.50 -185.40 887.99 8.50 -178.79 
887.99 8.50 -172.17 887.98 8.50 -165.56 887.95 8.50 -158.95 
887.91 8.50 -152.35 887.85 8.50 -145.77 887.75 8.50 -139.19 
887.61 8.50 -132.64 887.39 8.50 -126.12 887.06 8.50 -119.65 
886.60 8.50 -113.23 885.96 8.50 -106.89 885.07 8.50 -100.65 
883.90 8.50 -94.55 882.39 8.50 -88.63 880.49 8.50 -82.92 
878.15 8.50 -77.48 875.34 8.50 -72.35 872.05 8.50 -67.58 
868.26 8.50 -63.22 863.99 8.51 -59.30 859.28 8.51 -55.85 
854.17 8.51 -52.89 848.71 8.51 -50.41 842.98 8.51 -48.40 
837.05 8.51 -46.84 830.98 8.51 -45.72 824.83 8.51 -45.01 
818.67 8.51 -44.69 812.54 8.51 -44.74 806.48 8.51 -45.17 
800.55 8.51 -45.99 794.78 8.51 -47.22 789.21 8.51 -48.88 
783.89 8.50 -51.00 778.86 8.50 -53.61 774.18 8.50 -56.72 
769.88 8.49 -60.34 766.00 8.49 -64.44 762.56 8.49 -69.01 
759.57 8.48 -74.00 757.03 8.48 -79.36 754.92 8.48 -85.03 
753.19 8.48 -90.96 751.82 8.48 -97.08 750.74 8.48 -103.34 
749.92 8.48 -109.68 749.31 8.48 -116.07 748.86 8.48 -122.47 
748.54 8.48 -128.84 748.32 8.48 -135.18 748.17 8.48 -141.46 
748.07 8.49 -147.67 748.02 8.49 -153.83 747.99 8.49 -159.92 
747.97 8.49 -165.95 747.97 8.49 -171.93 747.97 8.49 -177.87 
747.98 8.50 -183.78 747.98 8.50 -189.67 747.99 8.50 -195.54 
747.99 8.50 -201.40 747.99 8.50 -207.25 748.00 8.50 -213.10 
748.00 8.50 -218.95 748.00 8.50 -224.80 748.00 8.50 -230.66 
748.00 8.50 -236.53 748.00 8.50 -242.40 748.00 8.50 -248.27 
748.00 8.50 -254.15 748.00 8.50 -260.04 748.00 8.50 -265.93 
748.00 8.50 -271.82 748.00 8.50 -277.71 748.00 8.50 -283.61 
748.00 8.50 -289.51 748.00 8.50 -295.41 748.00 8.50 -301.31 
748.00 8.50 -307.20 748.00 8.50 -313.10 748.00 8.50 -318.99 
748.00 8.50 -324.89 748.00 8.50 -330.78 748.00 8.50 -336.67 
748.00 8.50 -342.56 748.00 8.50 -348.45 748.00 8.50 -354.34 
748.00 8.50 -360.23 748.00 8.50 -366.11 748.00 8.50 -372.00 
748.00 8.50 -377.89 748.00 8.50 -383.78 748.00 8.50 -389.66 
748.00 8.50 -395.55 748.00 8.50 -401.45 748.00 8.50 -407.34 
748.00 8.50 -413.25 748.00 8.50 -419.15 748.00 8.50 -425.07 
748.00 8.50 -431.00 748.00 8.50 -436.93 748.00 8.50 -442.89 
747.99 8.50 -448.85 747.99 8.50 -454.83 747.97 8.50 -460.83 
747.95 8.50 -466.84 747.92 8.50 -472.86 747.86 8.50 -478.89 
747.76 8.50 -484.92 747.61 8.50 -490.95 747.38 8.50 -496.95 
747.03 8.50 -502.90 746.53 8.50 -508.77 745.83 8.50 -514.53 
744.87 8.51 -520.11 743.60 8.51 -525.45 741.96 8.51 -530.47 
[...]
POINT_DATA 1156
FIELD FieldData 1
MaximumInscribedSphereRadius 1 1156 double
1.50 1.50 1.50 1.50 1.50 1.50 1.50 1.50 1.50 
1.50 1.50 1.51 1.51 1.52 1.52 1.54 1.56 1.58 
1.61 1.65 1.70 1.75 1.80 1.85 1.91 1.95 1.98 
1.99 1.99 1.98 1.94 1.90 1.85 1.80 1.74 1.69 
1.65 1.61 1.58 1.55 1.54 1.52 1.51 1.51 1.51 
1.50 1.50 1.50 1.50 1.50 1.50 1.50 1.50 1.50 
1.50 1.50 1.50 1.50 1.50 1.50 1.50 1.50 1.50 
1.50 1.50 1.50 1.50 1.50 1.50 1.50 1.50 1.50 
1.50 1.50 1.50 1.50 1.50 1.50 1.50 1.50 1.50 
1.50 1.50 1.50 1.50 1.50 1.50 1.50 1.50 1.50 
1.50 1.50 1.50 1.50 1.51 1.51 1.51 1.52 1.53 
1.54 1.56 1.58 1.61 1.66 1.71 1.78 1.87 1.96 
2.07 2.18 2.30 2.42 2.53 2.63 2.71 2.78 2.83 
2.85 2.85 2.83 2.79 2.73 2.65 2.57 2.49 2.40 
2.32 2.25 2.19 2.13 2.09 2.06 2.03 2.02 2.00 
2.00 1.99 1.99 1.99 1.98 1.98 1.98 1.98 1.98 
1.98 1.98 1.98 1.98 1.99 1.99 1.99 1.99 1.99 
1.99 1.99 1.99 1.98 1.98 1.98 1.98 1.98 1.98 
1.98 1.98 1.98 1.99 1.99 1.99 1.99 1.99 1.99 
1.99 1.99 1.99 1.99 1.99 1.98 1.98 1.98 1.98 
1.98 1.98 1.98 1.98 1.98 1.98 1.99 2.00 2.02 
2.04 2.08 2.12 2.18 2.24 2.30 2.36 2.42 2.46 
2.48 2.49 2.48 2.46 2.42 2.38 2.34 2.31 2.28 
2.26 2.25 2.24 2.24 2.24 2.23 2.22 2.19 2.16 
2.11 2.05 1.99 1.92 1.85 1.79 1.73 1.67 1.63 
1.59 1.56 1.54 1.53 1.52 1.51 1.51 1.50 1.50 
1.50 1.50 1.50 1.50 1.50 1.50 1.50 1.50 1.50 
1.50 1.50 1.50 1.50 1.50 1.50 1.50 1.50 1.50 
1.50 1.50 1.50 1.50 1.50 1.50 1.50 1.50 1.50 
1.50 1.50 1.50 1.50 1.50 1.50 1.50 1.50 1.50 
1.50 1.50 1.50 1.50 1.50 1.50 1.50 1.50 1.50 
1.50 1.50 1.50 1.50 1.50 1.51 1.51 1.52 1.52 
1.54 1.56 1.58 1.61 1.66 1.71 1.78 1.86 1.95 
2.05 2.15 2.25 2.35 2.44 2.52 2.58 2.62 2.63 
2.62 2.59 2.54 2.48 2.41 2.34 2.28 2.21 2.16 
2.12 2.08 2.05 2.04 2.02 2.01 2.01 2.00 2.00 
2.00 1.99 1.99 1.99 1.99 1.99 1.99 1.99 1.99 
1.99 1.99 1.99 1.99 1.99 1.99 1.99 1.99 1.99 
1.99 1.99 1.99 1.99 1.99 1.99 1.99 1.99 1.99 
1.99 1.99 1.99 1.99 1.99 1.99 1.99 1.99 1.99 
1.99 1.99 1.99 1.99 1.99 2.00 2.00 2.00 2.00 
2.00 2.00 2.00 2.00 2.00 2.00 2.01 2.02 2.03 
2.04 2.06 2.08 2.09 2.10 2.11 2.11 2.10 2.09 
2.06 2.03 2.01 1.98 1.96 1.96 1.96 1.98 2.01 
2.04 2.08 2.12 2.16 2.19 2.21 2.22 2.21 2.20 
2.18 2.16 2.12 2.09 2.04 1.99 1.94 1.88 1.83 
1.77 1.72 1.67 1.63 1.60 1.57 1.55 1.53 1.52 
1.51 1.51 1.50 1.50 1.50 1.50 1.50 1.50 1.50 
1.50 1.50 1.50 1.50 1.50 1.50 1.50 1.50 1.50 
1.50 1.50 1.50 1.50 1.50 1.50 1.50 1.50 1.50 
1.50 1.50 1.50 1.50 1.50 1.50 1.50 1.50 1.50 
1.50 1.50 1.50 1.50 1.50 1.50 1.50 1.50 1.50 
1.50 1.51 1.51 1.51 1.52 1.53 1.55 1.57 1.60 
1.64 1.70 1.76 1.83 1.92 2.01 2.11 2.20 2.29 
2.37 2.43 2.47 2.48 2.46 2.42 2.36 2.27 2.18 
2.08 1.98 1.88 1.79 1.72 1.66 1.61 1.58 1.55 
1.53 1.52 1.51 1.51 1.50 1.50 1.50 1.50 1.50 
1.50 1.50 1.50 1.50 1.50 1.50 1.50 1.50 1.50 
1.51 1.51 1.51 1.51 1.51 1.51 1.51 1.51 1.51 
1.51 1.51 1.51 1.51 1.51 1.51 1.51 1.51 1.51 
1.51 1.51 1.51 1.51 1.51 1.51 1.51 1.51 1.51 
1.51 1.51 1.51 1.51 1.51 1.51 1.51 1.51 1.51 
1.52 1.52 1.52 1.53 1.54 1.56 1.58 1.60 1.63 
1.66 1.69 1.73 1.77 1.81 1.84 1.87 1.90 1.92 
1.94 1.96 1.97 1.99 2.00 2.01 2.03 2.05 2.07 
2.09 2.11 2.13 2.14 2.15 2.15 2.13 2.11 2.08 
2.03 1.98 1.93 1.87 1.81 1.76 1.71 1.66 1.63 
1.60 1.57 1.55 1.54 1.53 1.52 1.51 1.51 1.51 
1.51 1.51 1.51 1.51 1.50 1.50 1.50 1.50 1.50 
1.50 1.50 1.50 1.50 1.50 1.50 1.50 1.50 1.50 
1.50 1.50 1.50 1.50 1.50 1.50 1.50 1.50 1.50 
1.50 1.50 1.50 1.50 1.50 1.50 1.50 1.50 1.50 
1.50 1.50 1.50 1.50 1.50 1.50 1.50 1.50 1.50 
1.50 1.51 1.51 1.51 1.51 1.52 1.53 1.54 1.56 
1.59 1.63 1.68 1.74 1.82 1.91 2.00 2.10 2.20 
2.29 2.37 2.42 2.45 2.45 2.42 2.37 2.29 2.20 
2.10 2.01 1.91 1.83 1.75 1.69 1.64 1.60 1.57 
1.55 1.54 1.53 1.52 1.52 1.51 1.51 1.51 1.51 
1.51 1.51 1.51 1.51 1.51 1.51 1.51 1.51 1.51 
1.51 1.51 1.51 1.51 1.51 1.51 1.51 1.51 1.51 
1.51 1.51 1.51 1.51 1.51 1.51 1.51 1.51 1.51 
1.51 1.51 1.51 1.51 1.51 1.51 1.51 1.51 1.51 
1.51 1.51 1.51 1.51 1.51 1.51 1.51 1.51 1.51 
1.52 1.52 1.52 1.53 1.53 1.55 1.56 1.59 1.62 
1.66 1.70 1.75 1.81 1.87 1.93 1.99 2.04 2.08 
2.11 2.13 2.15 2.15 2.15 2.15 2.15 2.16 2.16 
2.17 2.18 2.18 2.19 2.18 2.17 2.15 2.12 2.09 
2.04 1.99 1.93 1.88 1.82 1.77 1.72 1.67 1.64 
1.60 1.58 1.55 1.54 1.53 1.52 1.51 1.51 1.51 
1.50 1.50 1.50 1.50 1.50 1.50 1.50 1.50 1.50 
1.50 1.50 1.50 1.50 1.50 1.50 1.50 1.50 1.50 
1.50 1.50 1.50 1.50 1.50 1.50 1.50 1.50 1.50 
1.50 1.50 1.50 1.50 1.50 1.50 1.50 1.50 1.50 
1.50 1.50 1.50 1.50 1.50 1.50 1.50 1.50 1.50 
1.50 1.50 1.50 1.50 1.50 1.51 1.51 1.52 1.53 
1.54 1.56 1.59 1.63 1.67 1.73 1.80 1.87 1.95 
2.03 2.11 2.18 2.24 2.28 2.30 2.30 2.29 2.26 
2.23 2.18 2.14 2.10 2.06 2.04 2.02 2.00 2.00 
1.99 1.99 1.99 1.99 1.99 1.99 1.99 2.00 2.00 
2.00 2.00 2.00 2.00 2.00 2.00 2.00 2.00 2.00 
2.00 2.00 2.00 2.00 2.00 2.00 2.00 2.00 2.00 
2.00 2.00 2.00 2.00 2.00 2.00 2.00 2.00 2.00 
2.00 2.00 2.00 2.00 2.00 2.00 2.00 2.00 2.00 
2.00 2.00 2.00 2.00 2.00 2.00 2.00 2.00 2.01 
2.01 2.02 2.03 2.05 2.07 2.09 2.12 2.14 2.17 
2.20 2.23 2.25 2.27 2.28 2.29 2.28 2.27 2.26 
2.24 2.22 2.19 2.17 2.16 2.15 2.14 2.13 2.13 
2.12 2.11 2.09 2.07 2.03 1.99 1.95 1.89 1.84 
1.79 1.73 1.69 1.65 1.61 1.58 1.56 1.54 1.53 
1.52 1.52 1.51 1.51 1.51 1.51 1.51 1.51 1.51 
1.51 1.51 1.51 1.51 1.51 1.51 1.51 1.51 1.51 
1.51 1.51 1.51 1.51 1.51 1.51 1.51 1.51 1.51 
1.51 1.51 1.51 1.51 1.51 1.51 1.50 1.50 1.50 
1.50 1.50 1.50 1.50 1.50 1.50 1.50 1.50 1.50 
1.50 1.50 1.50 1.50 1.50 1.50 1.51 1.51 1.51 
1.51 1.52 1.53 1.55 1.57 1.61 1.65 1.71 1.78 
1.87 1.97 2.08 2.20 2.31 2.40 2.49 2.54 2.57 
2.56 2.52 2.46 2.37 2.27 2.16 2.05 1.94 1.85 
1.76 1.70 1.64 1.60 1.57 1.55 1.53 1.52 1.51 
1.51 1.50 1.50 1.50 1.50 1.50 1.50 1.50 1.50 
1.50 1.50 1.50 1.50 1.50 1.50 1.50 1.50 1.50 
1.50 1.50 1.50 1.50 1.50 1.50 1.50 1.50 1.50 
1.50 1.50 1.50 1.50 1.50 1.50 1.50 1.50 1.50 
1.50 1.50 1.50 1.50 1.50 1.50 1.50 1.50 1.50 
1.50 1.50 1.50 1.50 1.50 1.50 1.50 1.50 1.50 
1.50 1.50 1.51 1.51 1.51 1.52 1.54 1.55 1.57 
1.60 1.63 1.67 1.71 1.76 1.80 1.84 1.87 1.89 
1.90 1.89 1.87 1.84 1.81 1.76 1.72 1.68 1.64 
1.61 1.58 1.50 1.56 
