# vtk DataFile Version 3.0
vtk output
ASCII
DATASET POLYDATA
POINTS 1976 float
-314.62 -6.54 178.08 -314.61 -6.54 177.47 -314.62 -6.54 176.85 
-314.64 -6.54 176.20 -314.68 -6.54 175.54 -314.73 -6.54 174.85 
-314.79 -6.54 174.15 -314.86 -6.54 173.44 -314.94 -6.54 172.71 
-315.03 -6.54 171.96 -315.12 -6.54 171.21 -315.22 -6.54 170.44 
-315.32 -6.54 169.67 -315.43 -6.54 168.88 -315.54 -6.54 168.10 
-315.65 -6.54 167.30 -315.76 -6.54 166.50 -315.87 -6.54 165.71 
-315.98 -6.54 164.90 -316.08 -6.54 164.10 -316.18 -6.54 163.31 
-316.28 -6.54 162.51 -316.36 -6.54 161.72 -316.44 -6.54 160.93 
-316.51 -6.54 160.15 -316.57 -6.54 159.38 -316.62 -6.54 158.62 
-316.66 -6.53 157.87 -316.68 -6.53 157.13 -316.69 -6.53 156.41 
-316.68 -6.53 155.70 -316.66 -6.53 155.01 -316.62 -6.53 154.33 
-316.56 -6.53 153.67 -316.48 -6.53 153.04 -316.38 -6.53 152.42 
-316.26 -6.53 151.83 -316.12 -6.53 151.26 -315.95 -6.53 150.70 
-315.77 -6.53 150.17 -315.57 -6.53 149.66 -315.35 -6.53 149.17 
-315.11 -6.53 148.69 -314.86 -6.53 148.23 -314.58 -6.53 147.80 
-314.29 -6.54 147.37 -313.99 -6.54 146.97 -313.66 -6.54 146.58 
-313.32 -6.54 146.21 -312.97 -6.54 145.86 -312.60 -6.54 145.52 
-312.22 -6.54 145.20 -311.82 -6.54 144.89 -311.41 -6.54 144.59 
-310.98 -6.54 144.31 -310.55 -6.54 144.04 -310.10 -6.54 143.79 
-309.64 -6.54 143.54 -309.16 -6.55 143.31 -308.68 -6.55 143.09 
-308.18 -6.55 142.89 -307.68 -6.55 142.69 -307.16 -6.55 142.50 
-306.64 -6.55 142.33 -306.11 -6.55 142.16 -305.57 -6.55 142.01 
-305.02 -6.55 141.86 -304.46 -6.55 141.72 -303.89 -6.55 141.59 
-303.32 -6.56 141.46 -302.74 -6.56 141.35 -302.16 -6.56 141.24 
-301.57 -6.56 141.13 -300.98 -6.56 141.03 -300.38 -6.56 140.94 
-299.77 -6.56 140.86 -299.17 -6.56 140.77 -298.56 -6.56 140.69 
-297.94 -6.56 140.62 -297.33 -6.56 140.55 -296.71 -6.56 140.48 
-296.09 -6.56 140.42 -295.47 -6.57 140.36 -294.84 -6.57 140.30 
-294.22 -6.57 140.24 -293.59 -6.57 140.18 -292.96 -6.57 140.13 
-292.33 -6.57 140.08 -291.70 -6.57 140.04 -291.06 -6.57 139.99 
-290.43 -6.57 139.95 -289.79 -6.57 139.91 -289.15 -6.57 139.88 
-288.51 -6.57 139.84 -287.87 -6.57 139.81 -287.23 -6.57 139.78 
-286.58 -6.57 139.75 -285.93 -6.57 139.72 -285.29 -6.57 139.70 
-284.64 -6.57 139.68 -283.99 -6.57 139.66 -283.34 -6.57 139.64 
-282.68 -6.57 139.62 -282.03 -6.57 139.61 -281.37 -6.57 139.60 
-280.72 -6.57 139.59 -280.06 -6.57 139.58 -279.40 -6.57 139.57 
-278.74 -6.57 139.56 -278.08 -6.57 139.56 -277.41 -6.57 139.56 
-276.75 -6.57 139.55 -276.09 -6.57 139.55 -275.42 -6.57 139.56 
-274.75 -6.57 139.56 -274.09 -6.56 139.56 -273.42 -6.56 139.57 
-272.75 -6.56 139.58 -272.08 -6.56 139.58 -271.41 -6.56 139.59 
-270.74 -6.56 139.60 -270.07 -6.56 139.62 -269.39 -6.56 139.63 
-268.72 -6.56 139.64 -268.05 -6.56 139.66 -267.37 -6.56 139.67 
-266.70 -6.56 139.69 -266.02 -6.56 139.70 -265.34 -6.56 139.72 
-264.67 -6.56 139.74 -263.99 -6.56 139.76 -263.31 -6.56 139.78 
-262.63 -6.56 139.80 -261.95 -6.56 139.82 -261.27 -6.55 139.84 
-260.59 -6.55 139.86 -259.91 -6.55 139.89 -259.23 -6.55 139.91 
-258.55 -6.55 139.93 -257.87 -6.55 139.96 -257.19 -6.55 139.98 
-256.51 -6.55 140.00 -255.83 -6.55 140.03 -255.15 -6.55 140.05 
-254.47 -6.55 140.07 -253.79 -6.55 140.10 -253.10 -6.55 140.12 
-252.42 -6.55 140.15 -251.74 -6.55 140.17 -251.06 -6.55 140.19 
-250.38 -6.54 140.22 -249.70 -6.54 140.24 -249.02 -6.54 140.26 
-248.33 -6.54 140.29 -247.65 -6.54 140.31 -246.97 -6.54 140.33 
-246.29 -6.54 140.35 -245.61 -6.54 140.38 -244.93 -6.54 140.40 
-244.25 -6.54 140.42 -243.58 -6.54 140.44 -242.90 -6.54 140.45 
-242.22 -6.54 140.47 -241.54 -6.54 140.49 -240.86 -6.54 140.51 
-240.19 -6.54 140.52 -239.51 -6.54 140.54 -238.83 -6.54 140.55 
-238.16 -6.54 140.57 -237.48 -6.54 140.58 -236.81 -6.54 140.60 
-236.13 -6.54 140.61 -235.46 -6.53 140.62 -234.78 -6.53 140.63 
-234.11 -6.53 140.64 -233.44 -6.53 140.65 -232.76 -6.53 140.66 
-232.09 -6.53 140.67 -231.42 -6.53 140.68 -230.74 -6.53 140.69 
-230.07 -6.53 140.70 -229.40 -6.53 140.70 -228.73 -6.53 140.71 
-228.06 -6.53 140.72 -227.39 -6.53 140.72 -226.72 -6.53 140.73 
-226.05 -6.53 140.73 -225.38 -6.53 140.74 -224.71 -6.53 140.74 
-224.04 -6.53 140.75 -223.37 -6.53 140.75 -222.70 -6.53 140.75 
-222.03 -6.53 140.75 -221.36 -6.53 140.75 -220.70 -6.53 140.76 
-220.03 -6.53 140.76 -219.36 -6.53 140.76 -218.69 -6.53 140.76 
-218.03 -6.53 140.76 -217.36 -6.53 140.76 -216.69 -6.53 140.76 
-216.03 -6.53 140.76 -215.36 -6.53 140.75 -214.69 -6.53 140.75 
-214.03 -6.53 140.75 -213.36 -6.53 140.75 -212.70 -6.53 140.74 
-212.03 -6.53 140.74 -211.37 -6.53 140.74 -210.70 -6.53 140.73 
-210.04 -6.53 140.73 -209.37 -6.53 140.72 -208.71 -6.53 140.72 
-208.04 -6.53 140.71 -207.38 -6.53 140.71 -206.72 -6.53 140.70 
-206.05 -6.53 140.70 -205.39 -6.53 140.69 -204.73 -6.53 140.69 
-204.06 -6.53 140.68 -203.40 -6.53 140.67 -202.74 -6.53 140.67 
-202.07 -6.53 140.66 -201.41 -6.53 140.65 -200.75 -6.53 140.65 
-200.09 -6.53 140.64 -199.42 -6.53 140.63 -198.76 -6.53 140.62 
-198.10 -6.53 140.61 -197.44 -6.53 140.61 -196.77 -6.53 140.60 
-196.11 -6.53 140.59 -195.45 -6.53 140.58 -194.79 -6.53 140.57 
-194.13 -6.53 140.56 -193.47 -6.53 140.55 -192.80 -6.53 140.55 
-192.14 -6.54 140.54 -191.48 -6.54 140.53 -190.82 -6.54 140.52 
-190.16 -6.54 140.51 -189.50 -6.54 140.50 -188.84 -6.54 140.49 
-188.18 -6.54 140.48 -187.51 -6.54 140.47 -186.85 -6.54 140.46 
-186.19 -6.54 140.45 -185.53 -6.54 140.44 -184.87 -6.54 140.43 
-184.21 -6.54 140.42 -183.55 -6.54 140.41 -182.89 -6.54 140.40 
-182.23 -6.54 140.40 -181.57 -6.54 140.39 -180.90 -6.54 140.38 
-180.24 -6.54 140.37 -179.58 -6.54 140.36 -178.92 -6.54 140.35 
-178.26 -6.54 140.34 -177.60 -6.54 140.33 -176.94 -6.54 140.32 
-176.28 -6.54 140.31 -175.61 -6.54 140.30 -174.95 -6.54 140.30 
-174.29 -6.54 140.29 -173.63 -6.54 140.28 -172.97 -6.54 140.27 
-172.31 -6.54 140.26 -171.65 -6.54 140.25 -170.98 -6.54 140.25 
-170.32 -6.54 140.24 -169.66 -6.54 140.23 -169.00 -6.54 140.22 
-168.34 -6.54 140.22 -167.67 -6.54 140.21 -167.01 -6.54 140.20 
-166.35 -6.54 140.20 -165.69 -6.54 140.19 -165.02 -6.54 140.19 
-164.36 -6.54 140.18 -163.70 -6.54 140.17 -163.03 -6.54 140.17 
-162.37 -6.54 140.16 -161.71 -6.54 140.16 -161.04 -6.54 140.15 
-160.38 -6.54 140.15 -159.72 -6.54 140.15 -159.05 -6.54 140.14 
-158.39 -6.55 140.14 -157.73 -6.55 140.14 -157.06 -6.55 140.13 
-156.40 -6.55 140.13 -155.73 -6.55 140.13 -155.07 -6.55 140.13 
-154.40 -6.55 140.13 -153.74 -6.55 140.12 -153.07 -6.55 140.12 
-152.40 -6.55 140.12 -151.74 -6.55 140.12 -151.07 -6.55 140.12 
-150.41 -6.55 140.12 -149.74 -6.55 140.13 -149.07 -6.55 140.13 
-148.41 -6.55 140.13 -147.74 -6.55 140.13 -147.07 -6.55 140.14 
-146.40 -6.55 140.14 -145.74 -6.55 140.14 -145.07 -6.55 140.15 
-144.40 -6.55 140.15 -143.73 -6.55 140.16 -143.06 -6.55 140.16 
-142.39 -6.55 140.17 -141.72 -6.55 140.17 -141.05 -6.55 140.18 
-140.38 -6.55 140.19 -139.71 -6.55 140.20 -139.04 -6.55 140.21 
-138.37 -6.55 140.21 -137.70 -6.55 140.22 -137.03 -6.55 140.23 
-136.36 -6.55 140.25 -135.68 -6.54 140.26 -135.01 -6.54 140.27 
-134.34 -6.54 140.28 -133.66 -6.54 140.29 -132.99 -6.54 140.31 
-132.32 -6.54 140.32 -131.64 -6.54 140.34 -130.97 -6.54 140.35 
-130.30 -6.54 140.36 -129.62 -6.54 140.38 -128.95 -6.54 140.40 
-128.27 -6.54 140.41 -127.60 -6.54 140.43 -126.92 -6.54 140.44 
-126.25 -6.54 140.46 -125.57 -6.54 140.47 -124.90 -6.54 140.49 
-124.22 -6.54 140.50 -123.55 -6.54 140.52 -122.87 -6.54 140.53 
-122.20 -6.54 140.54 -121.53 -6.54 140.56 -120.85 -6.54 140.57 
-120.18 -6.54 140.58 -119.50 -6.54 140.60 -118.83 -6.54 140.61 
-118.16 -6.54 140.62 -117.48 -6.54 140.63 -116.81 -6.54 140.64 
-116.14 -6.54 140.65 -115.47 -6.54 140.65 -114.80 -6.54 140.66 
-114.13 -6.54 140.66 -113.45 -6.54 140.67 -112.78 -6.54 140.67 
-112.11 -6.54 140.68 -111.45 -6.54 140.68 -110.78 -6.54 140.68 
-110.11 -6.54 140.68 -109.44 -6.54 140.67 -108.77 -6.54 140.67 
-108.11 -6.54 140.66 -107.44 -6.54 140.66 -106.78 -6.54 140.65 
-106.11 -6.54 140.64 -105.45 -6.54 140.63 -104.79 -6.54 140.61 
-104.12 -6.54 140.60 -103.46 -6.54 140.58 -102.80 -6.54 140.57 
-102.14 -6.54 140.55 -101.48 -6.54 140.53 -100.82 -6.54 140.51 
-100.16 -6.54 140.49 -99.50 -6.54 140.47 -98.84 -6.54 140.45 
-98.19 -6.54 140.42 -97.53 -6.54 140.40 -96.87 -6.54 140.38 
-96.21 -6.54 140.36 -95.55 -6.54 140.33 -94.89 -6.54 140.31 
-94.24 -6.54 140.29 -93.58 -6.54 140.26 -92.92 -6.54 140.24 
-92.26 -6.54 140.22 -91.60 -6.54 140.20 -90.95 -6.54 140.18 
-90.29 -6.54 140.16 -89.63 -6.54 140.14 -88.97 -6.54 140.12 
-88.31 -6.54 140.11 -87.65 -6.54 140.09 -86.99 -6.54 140.08 
-86.33 -6.54 140.06 -85.66 -6.54 140.05 -85.00 -6.54 140.04 
-84.34 -6.54 140.03 -83.68 -6.54 140.03 -83.01 -6.54 140.02 
-82.35 -6.54 140.02 -81.68 -6.54 140.02 -81.01 -6.54 140.02 
-80.35 -6.54 140.03 -79.68 -6.54 140.03 -79.01 -6.54 140.04 
-78.34 -6.54 140.05 -77.67 -6.54 140.07 -76.99 -6.54 140.08 
-76.32 -6.54 140.10 -75.65 -6.54 140.12 -74.98 -6.54 140.14 
-74.30 -6.54 140.16 -73.63 -6.54 140.19 -72.95 -6.54 140.21 
-72.27 -6.54 140.23 -71.60 -6.54 140.26 -70.92 -6.54 140.29 
-70.24 -6.54 140.31 -69.57 -6.54 140.34 -68.89 -6.54 140.37 
-68.21 -6.54 140.39 -67.54 -6.54 140.42 -66.86 -6.54 140.44 
-66.18 -6.54 140.47 -65.50 -6.54 140.49 -64.83 -6.54 140.52 
-64.15 -6.54 140.54 -63.47 -6.54 140.56 -62.79 -6.54 140.58 
-62.12 -6.54 140.60 -61.44 -6.54 140.61 -60.77 -6.54 140.63 
-60.09 -6.54 140.64 -59.42 -6.54 140.65 -58.74 -6.54 140.66 
-58.07 -6.54 140.66 -57.40 -6.54 140.66 -56.73 -6.54 140.66 
-56.06 -6.54 140.66 -55.39 -6.54 140.65 -54.72 -6.54 140.64 
-54.05 -6.54 140.63 -53.38 -6.54 140.61 -52.71 -6.54 140.59 
-52.05 -6.54 140.56 -51.39 -6.54 140.53 -50.72 -6.54 140.50 
-50.06 -6.54 140.46 -49.40 -6.54 140.42 -48.74 -6.54 140.37 
-48.08 -6.54 140.32 -47.43 -6.54 140.26 -46.77 -6.54 140.20 
-46.12 -6.54 140.13 -45.47 -6.54 140.05 -44.82 -6.54 139.97 
-44.17 -6.54 139.88 -43.52 -6.54 139.79 -42.88 -6.54 139.69 
-42.24 -6.54 139.59 -41.60 -6.54 139.48 -40.96 -6.54 139.36 
-40.32 -6.54 139.23 -39.69 -6.54 139.10 -39.05 -6.54 138.96 
[...]
POINT_DATA 1976
FIELD FieldData 1
MaximumInscribedSphereRadius 1 1976 double
5.12 5.12 5.12 5.12 5.12 5.12 5.12 5.12 5.12 
5.13 5.13 5.13 5.13 5.13 5.13 5.13 5.13 5.13 
5.13 5.13 5.13 5.13 5.13 5.13 5.13 5.13 5.13 
5.13 5.13 5.13 5.13 5.13 5.13 5.13 5.13 5.13 
5.13 5.13 5.13 5.13 5.13 5.13 5.13 5.13 5.13 
5.13 5.14 5.14 5.14 5.14 5.14 5.14 5.14 5.14 
5.14 5.14 5.14 5.14 5.14 5.14 5.14 5.14 5.14 
5.14 5.14 5.14 5.14 5.14 5.14 5.14 5.14 5.14 
5.14 5.14 5.14 5.14 5.14 5.14 5.14 5.14 5.14 
5.14 5.14 5.15 5.15 5.15 5.15 5.15 5.15 5.15 
5.15 5.15 5.15 5.15 5.15 5.15 5.15 5.15 5.15 
5.15 5.15 5.15 5.15 5.15 5.15 5.15 5.15 5.15 
5.15 5.15 5.15 5.15 5.15 5.15 5.15 5.15 5.15 
5.15 5.15 5.15 5.16 5.16 5.16 5.16 5.16 5.16 
5.16 5.16 5.16 5.16 5.16 5.16 5.16 5.16 5.16 
5.16 5.16 5.16 5.16 5.16 5.16 5.16 5.16 5.16 
5.16 5.16 5.16 5.16 5.16 5.16 5.16 5.16 5.16 
5.16 5.16 5.16 5.16 5.17 5.17 5.17 5.17 5.17 
5.17 5.17 5.17 5.17 5.17 5.17 5.17 5.17 5.17 
5.17 5.17 5.17 5.17 5.17 5.17 5.17 5.17 5.17 
5.17 5.17 5.17 5.17 5.17 5.17 5.17 5.17 5.17 
5.17 5.17 5.17 5.17 5.17 5.18 5.18 5.18 5.18 
5.18 5.18 5.18 5.18 5.18 5.18 5.18 5.18 5.18 
5.18 5.18 5.18 5.18 5.18 5.18 5.18 5.18 5.18 
5.18 5.18 5.18 5.18 5.18 5.18 5.18 5.18 5.18 
5.18 5.18 5.18 5.18 5.18 5.18 5.19 5.19 5.19 
5.19 5.19 5.19 5.19 5.19 5.19 5.19 5.19 5.19 
5.19 5.19 5.19 5.19 5.19 5.19 5.19 5.19 5.19 
5.19 5.19 5.19 5.19 5.19 5.19 5.19 5.19 5.19 
5.19 5.19 5.19 5.19 5.19 5.19 5.20 5.20 5.20 
5.20 5.20 5.20 5.20 5.20 5.20 5.20 5.20 5.20 
5.20 5.20 5.20 5.20 5.20 5.20 5.20 5.20 5.20 
5.20 5.20 5.20 5.20 5.20 5.20 5.20 5.20 5.20 
5.20 5.20 5.20 5.20 5.20 5.20 5.20 5.21 5.21 
5.21 5.21 5.21 5.21 5.21 5.21 5.21 5.21 5.21 
5.21 5.21 5.21 5.21 5.21 5.21 5.21 5.21 5.21 
5.21 5.21 5.21 5.21 5.21 5.21 5.21 5.21 5.21 
5.21 5.21 5.21 5.21 5.21 5.21 5.21 5.21 5.22 
5.22 5.22 5.22 5.22 5.22 5.22 5.22 5.22 5.22 
5.22 5.22 5.22 5.22 5.22 5.22 5.22 5.22 5.22 
5.22 5.22 5.22 5.22 5.22 5.22 5.22 5.22 5.22 
5.22 5.22 5.22 5.22 5.22 5.22 5.22 5.22 5.22 
5.23 5.23 5.23 5.23 5.23 5.23 5.23 5.23 5.23 
5.23 5.23 5.23 5.23 5.23 5.23 5.23 5.23 5.23 
5.23 5.23 5.23 5.23 5.23 5.23 5.23 5.23 5.23 
5.23 5.23 5.23 5.23 5.23 5.23 5.23 5.23 5.23 
5.23 5.24 5.24 5.24 5.24 5.24 5.24 5.24 5.24 
5.24 5.24 5.24 5.24 5.24 5.24 5.24 5.24 5.24 
5.24 5.24 5.24 5.24 5.24 5.24 5.24 5.24 5.24 
5.24 5.24 5.24 5.24 5.24 5.24 5.24 5.24 5.24 
5.24 5.24 5.25 5.25 5.25 5.25 5.25 5.25 5.25 
5.25 5.25 5.25 5.25 5.25 5.25 5.25 5.25 5.25 
5.25 5.25 5.25 5.25 5.25 5.25 5.25 5.25 5.25 
5.25 5.25 5.25 5.25 5.25 5.25 5.25 5.25 5.25 
5.25 5.25 5.25 5.26 5.26 5.26 5.26 5.26 5.26 
5.26 5.26 5.26 5.26 5.26 5.26 5.26 5.26 5.26 
5.26 5.26 5.26 5.26 5.26 5.26 5.26 5.26 5.26 
5.26 5.26 5.26 5.26 5.26 5.26 5.26 5.26 5.26 
5.26 5.26 5.26 5.26 5.27 5.27 5.27 5.27 5.27 
5.27 5.27 5.27 5.27 5.27 5.27 5.27 5.27 5.27 
5.27 5.27 5.27 5.27 5.27 5.27 5.27 5.27 5.27 
5.27 5.27 5.27 5.27 5.27 5.27 5.27 5.27 5.27 
5.27 5.27 5.27 5.27 5.27 5.28 5.28 5.28 5.28 
5.28 5.28 5.28 5.28 5.28 5.28 5.28 5.28 5.28 
5.28 5.28 5.28 5.28 5.28 5.28 5.28 5.28 5.28 
5.28 5.28 5.28 5.28 5.28 5.28 5.28 5.28 5.28 
5.28 5.28 5.28 5.28 5.28 5.28 5.29 5.29 5.29 
5.29 5.29 5.29 5.29 5.29 5.29 5.29 5.29 5.29 
5.29 5.29 5.29 5.29 5.29 5.29 5.29 5.29 5.29 
5.29 5.29 5.29 5.29 5.29 5.29 5.29 5.29 5.29 
5.29 5.29 5.29 5.29 5.29 5.29 5.29 5.30 5.30 
5.30 5.30 5.30 5.30 5.30 5.30 5.30 5.30 5.30 
5.30 5.30 5.30 5.30 5.30 5.30 5.30 5.30 5.30 
5.30 5.30 5.30 5.30 5.30 5.30 5.30 5.30 5.30 
5.30 5.30 5.30 5.30 5.30 5.30 5.30 5.30 5.31 
5.31 5.31 5.31 5.31 5.31 5.31 5.31 5.31 5.31 
5.31 5.31 5.31 5.31 5.31 5.31 5.31 5.31 5.31 
5.31 5.31 5.31 5.31 5.31 5.31 5.31 5.31 5.31 
5.31 5.31 5.31 5.31 5.31 5.31 5.31 5.31 5.31 
5.32 5.32 5.32 5.32 5.32 5.32 5.32 5.32 5.32 
5.32 5.32 5.32 5.32 5.32 5.32 5.32 5.32 5.32 
5.32 5.32 5.32 5.32 5.32 5.32 5.32 5.32 5.32 
5.32 5.32 5.32 5.32 5.32 5.32 5.32 5.32 5.32 
5.32 5.33 5.33 5.33 5.33 5.33 5.33 5.33 5.33 
5.33 5.33 5.33 5.33 5.33 5.33 5.33 5.33 5.33 
5.33 5.33 5.33 5.33 5.33 5.33 5.33 5.33 5.33 
5.33 5.33 5.33 5.33 5.33 5.33 5.33 5.33 5.33 
5.33 5.33 5.34 5.34 5.34 5.34 5.34 5.34 5.34 
5.34 5.34 5.34 5.34 5.34 5.34 5.34 5.34 5.34 
5.34 5.34 5.34 5.34 5.34 5.34 5.34 5.34 5.34 
5.34 5.34 5.34 5.34 5.34 5.34 5.34 5.34 5.34 
5.34 5.34 5.34 5.35 5.35 5.35 5.35 5.35 5.35 
5.35 5.35 5.35 5.35 5.35 5.35 5.35 5.35 5.35 
5.35 5.35 5.35 5.35 5.35 5.35 5.35 5.35 5.35 
5.35 5.35 5.35 5.35 5.35 5.35 5.35 5.35 5.35 
5.35 5.35 5.35 5.35 5.36 5.36 5.36 5.36 5.36 
5.36 5.36 5.36 5.36 5.36 5.36 5.36 5.36 5.36 
5.36 5.36 5.36 5.36 5.36 5.36 5.36 5.36 5.36 
5.36 5.36 5.36 5.36 5.36 5.36 5.36 5.36 5.36 
5.36 5.36 5.36 5.36 5.36 5.37 5.37 5.37 5.37 
5.37 5.37 5.37 5.37 5.37 5.37 5.37 5.37 5.37 
5.37 5.37 5.37 5.37 5.37 5.37 5.37 5.37 5.37 
5.37 5.37 5.37 5.37 5.37 5.37 5.37 5.37 5.37 
5.37 5.37 5.37 5.37 5.37 5.37 5.38 5.38 5.38 
5.38 5.38 5.38 5.38 5.38 5.38 5.38 5.38 5.38 
5.38 5.38 5.38 5.38 5.38 5.38 5.38 5.38 5.38 
5.38 5.38 5.38 5.38 5.38 5.38 5.38 5.38 5.38 
5.38 5.38 5.38 5.38 5.38 5.38 5.38 5.39 5.39 
5.39 5.39 5.39 5.39 5.39 5.39 5.39 5.39 5.39 
5.39 5.39 5.39 5.39 5.39 5.39 5.39 5.39 5.39 
5.39 5.39 5.39 5.39 5.39 5.39 5.39 5.39 5.39 
5.39 5.39 5.39 5.39 5.39 5.39 5.39 5.39 5.40 
5.40 5.40 5.40 5.40 5.40 5.40 5.40 5.40 5.40 
5.40 5.40 5.40 5.40 5.40 5.40 5.40 5.40 5.40 
5.40 5.40 5.40 5.40 5.40 5.40 5.40 5.40 5.40 
5.40 5.40 5.40 5.40 5.40 5.40 5.40 5.40 5.40 
5.41 5.41 5.41 5.41 5.41 5.41 5.41 5.41 5.41 
5.41 5.41 5.41 5.41 5.41 5.41 5.41 5.41 5.41 
5.41 5.41 5.41 5.41 5.41 5.41 5.41 5.41 5.41 
5.41 5.41 5.41 5.41 5.41 5.41 5.41 5.41 5.41 
5.41 5.42 5.42 5.42 5.42 5.42 5.42 5.42 5.42 
5.42 5.42 5.42 5.42 5.42 5.42 5.42 5.42 5.42 
5.42 5.42 5.42 5.42 5.42 5.42 5.42 5.42 5.42 
5.42 5.42 5.42 5.42 5.42 5.42 5.42 5.42 5.42 
5.42 5.42 5.43 5.43 5.43 5.43 5.43 5.43 5.43 
5.43 5.43 5.43 5.43 5.43 5.43 5.43 5.43 5.43 
5.43 5.43 5.43 5.43 5.43 5.43 5.43 5.43 5.43 
5.43 5.43 5.43 5.43 5.43 5.43 5.43 5.43 5.43 
5.43 5.43 5.43 5.44 5.44 5.44 5.44 5.44 5.44 
5.44 5.44 5.44 5.44 5.44 5.44 5.44 5.44 5.44 
5.44 5.44 5.44 5.44 5.44 5.44 5.44 5.44 5.44 
5.44 5.44 5.44 5.44 5.44 5.44 5.44 5.44 5.44 
5.44 5.44 5.44 5.45 5.45 5.45 5.45 5.45 5.45 
5.45 5.45 5.45 5.45 5.45 5.45 5.45 5.45 5.45 
5.45 5.45 5.45 5.45 5.45 5.45 5.45 5.45 5.45 
5.45 5.45 5.45 5.45 5.45 5.45 5.45 5.45 5.45 
5.45 5.45 5.45 5.45 5.46 5.46 5.46 5.46 5.46 
5.46 5.46 5.46 5.46 5.46 5.46 5.46 5.46 5.46 
5.46 5.46 5.46 5.46 5.46 5.46 5.46 5.46 5.46 
5.46 5.46 5.46 5.46 5.46 5.46 5.46 5.46 5.46 
5.46 5.46 5.46 5.46 5.46 5.47 5.47 5.47 5.47 
5.47 5.47 5.47 5.47 5.47 5.47 5.47 5.47 5.47 
5.47 5.47 5.47 5.47 5.47 5.47 5.47 5.47 5.47 
5.47 5.47 5.47 5.47 5.47 5.47 5.47 5.47 5.47 
5.47 5.47 5.47 5.47 5.47 5.47 5.48 5.48 5.48 
5.48 5.48 5.48 5.48 5.48 5.48 5.48 5.48 5.48 
5.48 5.48 5.48 5.48 5.48 5.48 5.48 5.48 5.48 
5.48 5.48 5.48 5.48 5.48 5.48 5.48 5.48 5.48 
5.48 5.48 5.48 5.48 5.48 5.48 5.48 5.49 5.49 
5.49 5.49 5.49 5.49 5.49 5.49 5.49 5.49 5.49 
5.49 5.49 5.49 5.49 5.49 5.49 5.49 5.49 5.49 
5.49 5.49 5.49 5.49 5.49 5.49 5.49 5.49 5.49 
5.49 5.49 5.49 5.49 5.49 5.49 5.49 5.49 5.50 
5.50 5.50 5.50 5.50 5.50 5.50 5.50 5.50 5.50 
5.50 5.50 5.50 5.50 5.50 5.50 5.50 5.50 5.50 
5.50 5.50 5.50 5.50 5.50 5.50 5.50 5.50 5.50 
5.50 5.50 5.50 5.50 5.50 5.50 5.50 5.50 5.50 
5.51 5.51 5.51 5.51 5.51 5.51 5.51 5.51 5.51 
5.51 5.51 5.51 5.51 5.51 5.51 5.51 5.51 5.51 
5.51 5.51 5.51 5.51 5.51 5.51 5.51 5.51 5.51 
5.51 5.51 5.51 5.51 5.51 5.51 5.51 5.51 5.51 
5.51 5.52 5.52 5.52 5.52 5.52 5.52 5.52 5.52 
5.52 5.52 5.52 5.52 5.52 5.52 5.52 5.52 5.52 
5.52 5.52 5.52 5.52 5.52 5.52 5.52 5.52 5.52 
5.52 5.52 5.52 5.52 5.52 5.52 5.52 5.52 5.52 
5.52 5.52 5.53 5.53 5.53 5.53 5.53 5.53 5.53 
5.53 5.53 5.53 5.53 5.53 5.53 5.53 5.53 5.53 
5.53 5.53 5.53 5.53 5.53 5.53 5.53 5.53 5.53 
5.53 5.53 5.53 5.53 5.53 5.53 5.53 5.53 5.53 
5.53 5.53 5.53 5.54 5.54 5.54 5.54 5.54 5.54 
5.54 5.54 5.54 5.54 5.54 5.54 5.54 5.54 5.54 
5.54 5.54 5.54 5.54 5.54 5.54 5.54 5.54 5.54 
5.54 5.54 5.54 5.54 5.54 5.54 5.54 5.54 5.54 
5.54 5.54 5.54 5.54 5.55 5.55 5.55 5.55 5.55 
5.55 5.55 5.55 5.55 5.55 5.55 5.55 5.55 5.55 
5.55 5.55 5.55 5.55 5.55 5.55 5.55 5.55 5.55 
5.55 5.55 5.55 5.55 5.55 5.55 5.55 5.55 5.55 
5.55 5.55 5.55 5.55 5.55 5.56 5.56 5.56 5.56 
5.56 5.56 5.56 5.56 5.56 5.56 5.56 5.56 5.56 
5.56 5.56 5.56 5.56 5.56 5.56 5.56 5.56 5.56 
5.56 5.56 5.56 5.56 5.56 5.56 5.56 5.56 5.56 
5.56 5.56 5.56 5.56 5.56 5.56 5.57 5.57 5.57 
5.57 5.57 5.57 5.57 5.57 5.57 5.57 5.57 5.57 
5.57 5.57 5.57 5.57 5.57 5.57 5.57 5.57 5.57 
5.57 5.57 5.57 5.57 5.57 5.57 5.57 5.57 5.57 
5.57 5.57 5.57 5.57 5.57 5.57 5.57 5.58 5.58 
5.58 5.58 5.58 5.58 5.58 5.58 5.58 5.58 5.58 
5.58 5.58 5.58 5.58 5.58 5.58 5.58 5.58 5.58 
5.58 5.58 5.58 5.58 5.58 5.58 5.58 5.58 5.58 
5.58 5.58 5.58 5.58 5.58 5.58 5.58 5.58 5.59 
5.59 5.59 5.59 5.59 5.59 5.59 5.59 5.59 5.59 
5.59 5.59 5.59 5.59 5.59 5.59 5.59 5.59 5.59 
5.59 5.59 5.59 5.59 5.59 5.59 5.59 5.59 5.59 
5.59 5.59 5.59 5.59 5.59 5.59 5.59 5.59 5.59 
5.60 5.60 5.60 5.60 5.60 5.60 5.60 5.60 5.60 
5.60 5.60 5.60 5.60 5.60 5.60 5.60 5.60 5.60 
5.60 5.60 5.60 5.60 5.60 5.60 5.60 5.60 5.60 
5.60 5.60 5.60 5.60 5.60 5.60 5.60 5.60 5.60 
5.60 5.61 5.61 5.61 5.61 5.61 5.61 5.61 5.61 
5.61 5.61 5.61 5.61 5.61 5.61 5.61 5.61 5.61 
5.61 5.61 5.61 5.61 5.61 5.61 5.61 5.61 5.61 
5.61 5.61 5.61 5.61 5.61 5.61 5.61 5.61 5.61 
5.61 5.61 5.62 5.62 5.62 5.62 5.62 5.62 5.62 
5.62 5.62 5.62 5.62 5.62 5.62 5.62 5.62 5.62 
5.62 5.62 5.62 5.62 5.62 5.62 5.62 5.62 5.62 
5.62 5.62 5.62 5.62 5.62 5.62 5.62 5.62 5.62 
5.62 5.62 5.62 5.63 5.63 5.63 5.63 5.63 5.63 
5.63 5.63 5.63 5.63 5.63 5.63 5.63 5.63 5.63 
5.63 5.63 5.63 5.63 5.63 5.63 5.63 5.63 5.63 
5.63 5.63 5.63 5.63 5.63 5.63 5.63 5.63 5.63 
5.63 5.63 5.63 5.63 5.64 5.64 5.64 5.64 5.64 
5.64 5.64 5.64 5.64 5.64 5.64 5.64 5.64 5.64 
5.64 5.64 5.64 5.64 5.64 5.64 5.64 5.64 5.64 
5.64 5.64 5.64 5.64 5.64 5.64 5.64 5.64 5.64 
5.64 5.64 5.64 5.64 5.64 5.65 5.65 5.65 5.65 
5.65 5.65 5.65 5.65 5.65 5.65 5.65 5.65 5.65 
5.65 5.65 5.65 5.65 5.65 5.65 5.65 5.65 5.65 
5.65 5.65 5.65 5.65 5.65 5.65 5.65 5.65 5.65 
5.65 5.65 5.65 5.65 5.65 5.65 5.66 5.66 5.66 
5.66 5.66 5.66 5.12 5.66 
