# vtk DataFile Version 3.0
vtk output
ASCII
DATASET POLYDATA
POINTS 108 float
2135.72 317.63 870.12 2142.09 318.12 870.78 2149.18 318.76 871.64 
2156.79 319.58 872.73 2164.76 320.59 874.10 2172.98 321.82 875.76 
2181.37 323.29 877.74 2189.89 324.99 880.06 2198.49 326.93 882.71 
2207.14 329.10 885.69 2215.81 331.48 888.95 2224.46 334.05 892.48 
2233.10 336.76 896.22 2241.74 339.58 900.11 2250.41 342.46 904.12 
2259.13 345.36 908.17 2267.96 348.24 912.21 2276.93 351.03 916.20 
2286.10 353.71 920.06 2295.48 356.23 923.75 2305.10 358.55 927.22 
2314.97 360.65 930.43 2325.06 362.51 933.34 2335.37 364.12 935.94 
2345.86 365.48 938.21 2356.48 366.60 940.16 2367.21 367.48 941.81 
2378.00 368.14 943.17 2388.80 368.59 944.28 2399.58 368.85 945.17 
2410.30 368.93 945.87 2420.94 368.82 946.40 2431.48 368.52 946.79 
2441.89 368.01 947.04 2452.18 367.27 947.15 2462.32 366.25 947.12 
2472.32 364.94 946.95 2482.16 363.30 946.63 2491.83 361.30 946.15 
2501.31 358.93 945.52 2510.59 356.18 944.73 2519.64 353.06 943.81 
2528.42 349.62 942.77 2536.89 345.89 941.64 2545.00 341.93 940.43 
2552.67 337.82 939.17 2559.85 333.60 937.87 2566.45 329.32 936.52 
2572.38 325.01 935.13 2577.56 320.67 933.68 2581.91 316.28 932.12 
2585.38 311.78 930.44 2587.92 307.12 928.60 2589.51 302.21 926.56 
2590.18 296.99 924.29 2589.95 291.38 921.77 2588.89 285.36 919.01 
2587.08 278.88 916.00 2584.58 271.94 912.76 2581.51 264.55 909.30 
2577.95 256.73 905.64 2573.99 248.54 901.80 2569.75 240.00 897.79 
2565.33 231.15 893.62 2560.86 222.05 889.28 2556.45 212.73 884.77 
2552.24 203.23 880.07 2548.36 193.57 875.17 2544.96 183.80 870.06 
2542.16 173.95 864.74 2540.09 164.07 859.22 2538.86 154.23 853.53 
2538.56 144.50 847.72 2539.26 134.96 841.85 2541.02 125.72 835.98 
2543.85 116.87 830.20 2547.76 108.54 824.57 2552.72 100.81 819.17 
2558.67 93.79 814.07 2565.54 87.56 809.31 2573.22 82.17 804.94 
2581.62 77.68 800.97 2590.60 74.10 797.44 2600.03 71.43 794.34 
2609.80 69.64 791.68 2619.79 68.69 789.45 2629.89 68.53 787.64 
2640.03 69.07 786.24 2650.12 70.23 785.22 2660.11 71.94 784.56 
2669.97 74.09 784.24 2679.67 76.61 784.22 2689.19 79.42 784.50 
2698.51 82.45 785.04 2707.61 85.64 785.83 2716.49 88.93 786.84 
2725.11 92.29 788.05 2733.47 95.67 789.44 2741.53 99.04 790.99 
2749.28 102.38 792.66 2756.72 105.66 794.43 2763.83 108.87 796.27 
2770.58 111.97 798.13 2776.93 114.93 799.96 2782.76 117.68 801.71 
2787.94 120.15 803.31 2117.58 316.61 868.74 2802.50 127.17 807.93 

LINES 1 109
108 107 105 104 103 102 101 100 99 98 97 96 95 94 93 92 91 90 89 88 87 86 85 84 83 82 81 80 79 78 77 76 75 74 73 72 71 70 69 68 67 66 65 64 63 62 61 60 59 58 57 56 55 54 53 52 51 50 49 48 47 46 45 44 43 42 41 40 39 38 37 36 35 34 33 32 31 30 29 28 27 26 25 24 23 22 21 20 19 18 17 16 15 14 13 12 11 10 9 8 7 6 5 4 3 2 1 0 106 
POINT_DATA 108
FIELD FieldData 1
MaximumInscribedSphereRadius 1 108 double
30.99 30.66 30.28 29.90 29.54 29.21 28.94 28.73 28.56 
28.45 28.37 28.32 28.27 28.21 28.15 28.07 27.98 27.88 
27.77 27.68 27.60 27.54 27.52 27.53 27.58 27.67 27.78 
27.92 28.07 28.22 28.36 28.48 28.57 28.64 28.67 28.65 
28.59 28.48 28.30 28.05 27.71 27.26 26.69 25.98 25.14 
24.17 23.10 21.97 20.85 19.80 18.92 18.25 17.87 17.81 
18.05 18.59 19.35 20.29 21.31 22.35 23.34 24.24 25.02 
25.69 26.23 26.67 27.03 27.32 27.55 27.74 27.90 28.03 
28.13 28.21 28.28 28.33 28.37 28.41 28.45 28.48 28.52 
28.56 28.60 28.63 28.67 28.70 28.73 28.76 28.78 28.78 
28.78 28.77 28.73 28.68 28.59 28.48 28.34 28.17 27.96 
27.73 27.47 27.20 26.92 26.66 26.42 26.22 31.28 26.05 

