# vtk DataFile Version 3.0
vtk output
ASCII
DATASET POLYDATA
POINTS 6 float
-472.26 103.80 284.69 -472.10 104.38 288.74 -471.93 104.95 293.00 
-471.77 105.47 297.08 -472.69 101.82 274.00 -471.36 106.89 308.07 

LINES 1 7
6 5 3 2 1 0 4 
POINT_DATA 6
FIELD FieldData 1
MaximumInscribedSphereRadius 1 6 double
47.58 43.40 38.94 34.65 51.09 30.94 
