# vtk DataFile Version 3.0
vtk output
ASCII
DATASET POLYDATA
POINTS 8 float
-5.18 0.00 0.00 -3.26 0.00 0.00 -1.11 0.00 0.00 
1.11 0.00 0.00 3.26 0.00 0.00 5.18 0.00 0.00 
-10.00 0.00 -0.00 10.00 -0.00 0.00 
LINES 1 9
8 7 5 4 3 2 1 0 6 
POINT_DATA 8
FIELD FieldData 1
MaximumInscribedSphereRadius 1 8 double
4.92 4.92 4.92 4.92 4.92 4.92 4.92 4.92 
