# vtk DataFile Version 3.0
vtk output
ASCII
DATASET POLYDATA
POINTS 1850 float
1364.91 7.50 -111.98 1362.93 7.50 -111.99 1360.73 7.50 -111.99 
1358.37 7.50 -111.99 1355.90 7.50 -112.00 1353.37 7.50 -112.00 
1350.78 7.50 -112.00 1348.15 7.50 -112.01 1345.49 7.50 -112.01 
1342.80 7.50 -112.01 1340.10 7.50 -112.02 1337.38 7.50 -112.02 
1334.65 7.50 -112.03 1331.92 7.50 -112.03 1329.19 7.50 -112.03 
1326.45 7.50 -112.04 1323.72 7.50 -112.04 1320.98 7.50 -112.04 
1318.25 7.50 -112.05 1315.52 7.50 -112.05 1312.78 7.50 -112.06 
1310.04 7.50 -112.06 1307.30 7.50 -112.06 1304.56 7.50 -112.07 
1301.81 7.50 -112.07 1299.07 7.50 -112.07 1296.31 7.50 -112.08 
1293.56 7.50 -112.08 1290.80 7.50 -112.09 1288.03 7.50 -112.09 
1285.26 7.50 -112.09 1282.49 7.50 -112.10 1279.71 7.50 -112.10 
1276.94 7.50 -112.11 1274.16 7.50 -112.11 1271.37 7.50 -112.11 
1268.59 7.50 -112.12 1265.80 7.50 -112.12 1263.02 7.50 -112.13 
1260.24 7.50 -112.13 1257.46 7.50 -112.13 1254.68 7.50 -112.14 
1251.91 7.50 -112.14 1249.14 7.50 -112.14 1246.38 7.50 -112.15 
1243.62 7.50 -112.15 1240.88 7.50 -112.15 1238.14 7.50 -112.16 
1235.41 7.50 -112.16 1232.70 7.50 -112.16 1230.00 7.50 -112.15 
1227.32 7.50 -112.14 1224.65 7.50 -112.13 1222.00 7.50 -112.10 
1219.36 7.50 -112.06 1216.75 7.50 -111.99 1214.15 7.50 -111.90 
1211.57 7.50 -111.77 1209.02 7.50 -111.60 1206.48 7.50 -111.39 
1203.97 7.50 -111.11 1201.48 7.50 -110.76 1199.01 7.50 -110.34 
1196.57 7.50 -109.85 1194.15 7.50 -109.28 1191.76 7.50 -108.62 
1189.39 7.50 -107.89 1187.04 7.50 -107.09 1184.71 7.50 -106.22 
1182.39 7.50 -105.29 1180.09 7.50 -104.30 1177.80 7.50 -103.28 
1175.51 7.50 -102.22 1173.23 7.50 -101.13 1170.94 7.50 -100.03 
1168.65 7.50 -98.92 1166.35 7.50 -97.81 1164.04 7.50 -96.71 
1161.72 7.50 -95.62 1159.38 7.50 -94.54 1157.02 7.50 -93.49 
1154.65 7.50 -92.46 1152.25 7.50 -91.46 1149.84 7.50 -90.48 
1147.42 7.50 -89.54 1144.97 7.50 -88.63 1142.52 7.50 -87.76 
1140.04 7.50 -86.91 1137.56 7.50 -86.10 1135.06 7.50 -85.32 
1132.56 7.50 -84.57 1130.04 7.50 -83.86 1127.52 7.50 -83.18 
1125.00 7.50 -82.54 1122.47 7.50 -81.94 1119.94 7.50 -81.39 
1117.41 7.50 -80.88 1114.88 7.50 -80.43 1112.35 7.50 -80.03 
1109.83 7.50 -79.68 1107.31 7.50 -79.38 1104.79 7.50 -79.13 
1102.27 7.50 -78.93 1099.76 7.50 -78.77 1097.25 7.50 -78.65 
1094.74 7.50 -78.56 1092.24 7.50 -78.49 1089.73 7.50 -78.44 
1087.22 7.50 -78.41 1084.71 7.50 -78.39 1082.20 7.50 -78.37 
1079.68 7.50 -78.36 1077.16 7.50 -78.36 1074.64 7.50 -78.36 
1072.11 7.50 -78.35 1069.57 7.50 -78.35 1067.02 7.50 -78.35 
1064.47 7.50 -78.35 1061.91 7.50 -78.35 1059.35 7.50 -78.35 
1056.77 7.50 -78.35 1054.19 7.50 -78.35 1051.60 7.50 -78.35 
1049.00 7.50 -78.35 1046.40 7.50 -78.35 1043.79 7.50 -78.35 
1041.17 7.50 -78.35 1038.54 7.50 -78.35 1035.91 7.50 -78.35 
1033.27 7.50 -78.35 1030.62 7.50 -78.35 1027.96 7.50 -78.35 
1025.30 7.50 -78.35 1022.63 7.50 -78.35 1019.96 7.50 -78.35 
1017.28 7.50 -78.35 1014.59 7.50 -78.35 1011.90 7.50 -78.35 
1009.21 7.50 -78.35 1006.51 7.50 -78.35 1003.81 7.50 -78.35 
1001.10 7.50 -78.35 998.40 7.50 -78.35 995.69 7.50 -78.35 
992.98 7.50 -78.35 990.27 7.50 -78.35 987.56 7.50 -78.35 
984.85 7.50 -78.35 982.15 7.50 -78.35 979.44 7.50 -78.35 
976.75 7.50 -78.35 974.05 7.50 -78.35 971.36 7.50 -78.35 
968.68 7.50 -78.35 966.00 7.50 -78.35 963.33 7.50 -78.35 
960.67 7.50 -78.35 958.01 7.50 -78.35 955.36 7.50 -78.35 
952.72 7.50 -78.35 950.08 7.50 -78.35 947.45 7.50 -78.35 
944.83 7.50 -78.35 942.22 7.50 -78.35 939.61 7.50 -78.35 
937.02 7.50 -78.35 934.42 7.50 -78.35 931.84 7.50 -78.35 
929.26 7.50 -78.35 926.69 7.50 -78.35 924.12 7.50 -78.35 
921.55 7.50 -78.35 919.00 7.50 -78.35 916.44 7.50 -78.35 
913.89 7.50 -78.35 911.34 7.50 -78.35 908.80 7.50 -78.35 
906.26 7.50 -78.35 903.72 7.50 -78.35 901.18 7.50 -78.35 
898.65 7.50 -78.35 896.11 7.50 -78.35 893.58 7.50 -78.35 
891.05 7.50 -78.35 888.51 7.50 -78.35 885.98 7.50 -78.35 
883.45 7.50 -78.35 880.92 7.50 -78.35 878.38 7.50 -78.35 
875.85 7.50 -78.35 873.32 7.50 -78.35 870.78 7.50 -78.35 
868.24 7.50 -78.35 865.71 7.50 -78.35 863.17 7.50 -78.35 
860.63 7.50 -78.35 858.09 7.50 -78.35 855.55 7.50 -78.35 
853.01 7.50 -78.35 850.46 7.50 -78.35 847.92 7.50 -78.35 
845.38 7.50 -78.35 842.84 7.50 -78.35 840.30 7.50 -78.35 
837.76 7.50 -78.35 835.22 7.50 -78.35 832.67 7.50 -78.35 
830.13 7.50 -78.35 827.58 7.50 -78.35 825.04 7.50 -78.35 
822.48 7.50 -78.35 819.92 7.50 -78.35 817.36 7.50 -78.35 
814.79 7.50 -78.35 812.21 7.50 -78.35 809.62 7.50 -78.35 
807.01 7.50 -78.35 804.40 7.50 -78.35 801.77 7.50 -78.35 
799.14 7.50 -78.35 796.48 7.50 -78.35 793.82 7.50 -78.35 
791.14 7.50 -78.35 788.45 7.50 -78.35 785.76 7.50 -78.35 
783.05 7.50 -78.35 780.33 7.50 -78.35 777.60 7.50 -78.35 
774.86 7.50 -78.35 772.12 7.50 -78.35 769.37 7.50 -78.35 
766.62 7.50 -78.35 763.87 7.50 -78.35 761.11 7.50 -78.35 
758.35 7.50 -78.35 755.60 7.50 -78.35 752.84 7.50 -78.35 
750.08 7.50 -78.35 747.33 7.50 -78.35 744.58 7.50 -78.35 
741.83 7.50 -78.35 739.09 7.50 -78.35 736.36 7.50 -78.35 
733.63 7.50 -78.35 730.91 7.50 -78.35 728.19 7.50 -78.35 
725.49 7.50 -78.35 722.80 7.50 -78.35 720.12 7.50 -78.35 
717.45 7.50 -78.35 714.79 7.50 -78.35 712.14 7.50 -78.35 
709.51 7.50 -78.35 706.88 7.50 -78.35 704.27 7.50 -78.35 
701.66 7.50 -78.35 699.07 7.50 -78.35 696.48 7.50 -78.35 
693.90 7.50 -78.35 691.32 7.50 -78.35 688.74 7.50 -78.35 
686.17 7.50 -78.35 683.59 7.50 -78.35 681.01 7.50 -78.35 
678.43 7.50 -78.35 675.84 7.50 -78.35 673.25 7.50 -78.35 
670.66 7.50 -78.35 668.05 7.50 -78.35 665.44 7.50 -78.35 
662.83 7.50 -78.35 660.20 7.50 -78.35 657.57 7.50 -78.35 
654.94 7.50 -78.35 652.30 7.50 -78.35 649.65 7.50 -78.35 
647.00 7.50 -78.35 644.34 7.50 -78.35 641.68 7.50 -78.35 
639.02 7.50 -78.35 636.36 7.50 -78.35 633.70 7.50 -78.35 
631.03 7.50 -78.35 628.36 7.50 -78.35 625.70 7.50 -78.35 
623.03 7.50 -78.35 620.37 7.50 -78.35 617.71 7.50 -78.35 
615.05 7.50 -78.35 612.39 7.50 -78.35 609.73 7.50 -78.35 
607.08 7.50 -78.35 604.43 7.50 -78.35 601.79 7.50 -78.35 
599.15 7.50 -78.35 596.51 7.50 -78.35 593.87 7.50 -78.35 
591.24 7.50 -78.35 588.62 7.50 -78.35 586.00 7.50 -78.35 
583.38 7.50 -78.35 580.76 7.50 -78.35 578.15 7.50 -78.35 
575.54 7.50 -78.35 572.94 7.50 -78.35 570.34 7.50 -78.35 
567.74 7.50 -78.35 565.15 7.50 -78.35 562.56 7.50 -78.35 
559.97 7.50 -78.35 557.38 7.50 -78.35 554.80 7.50 -78.35 
552.21 7.50 -78.35 549.63 7.50 -78.35 547.05 7.50 -78.35 
544.47 7.50 -78.35 541.89 7.50 -78.35 539.32 7.50 -78.35 
536.74 7.50 -78.35 534.17 7.50 -78.35 531.59 7.50 -78.35 
529.02 7.50 -78.35 526.44 7.50 -78.35 523.87 7.50 -78.35 
521.30 7.50 -78.35 518.73 7.50 -78.35 516.15 7.50 -78.35 
513.58 7.50 -78.35 511.01 7.50 -78.35 508.44 7.50 -78.35 
505.87 7.50 -78.35 503.29 7.50 -78.35 500.72 7.50 -78.35 
498.15 7.50 -78.35 495.58 7.50 -78.35 493.01 7.50 -78.35 
490.43 7.50 -78.35 487.86 7.50 -78.35 485.29 7.50 -78.35 
482.71 7.50 -78.35 480.14 7.50 -78.35 477.56 7.50 -78.35 
474.98 7.50 -78.35 472.40 7.50 -78.35 469.83 7.50 -78.35 
467.25 7.50 -78.35 464.67 7.50 -78.35 462.08 7.50 -78.35 
459.50 7.50 -78.35 456.92 7.50 -78.35 454.34 7.50 -78.35 
451.75 7.50 -78.35 449.16 7.50 -78.35 446.58 7.50 -78.35 
443.99 7.50 -78.35 441.40 7.50 -78.35 438.81 7.50 -78.35 
436.22 7.50 -78.35 433.62 7.50 -78.35 431.03 7.50 -78.35 
428.43 7.50 -78.35 425.84 7.50 -78.35 423.24 7.50 -78.35 
420.64 7.50 -78.35 418.04 7.50 -78.35 415.44 7.50 -78.35 
412.83 7.50 -78.35 410.23 7.50 -78.35 407.63 7.50 -78.35 
405.03 7.50 -78.35 402.43 7.50 -78.35 399.83 7.50 -78.35 
397.24 7.50 -78.35 394.64 7.50 -78.35 392.05 7.50 -78.35 
389.47 7.50 -78.35 386.89 7.50 -78.35 384.31 7.50 -78.35 
381.74 7.50 -78.35 379.18 7.50 -78.35 376.61 7.50 -78.35 
374.06 7.50 -78.35 371.50 7.50 -78.35 368.95 7.50 -78.35 
366.40 7.50 -78.35 363.84 7.50 -78.35 361.29 7.50 -78.35 
358.73 7.50 -78.35 356.16 7.50 -78.35 353.58 7.50 -78.35 
350.99 7.50 -78.35 348.39 7.50 -78.35 345.78 7.50 -78.35 
343.15 7.50 -78.35 340.51 7.50 -78.35 337.86 7.50 -78.35 
335.19 7.50 -78.35 332.50 7.50 -78.35 329.80 7.50 -78.35 
327.09 7.50 -78.35 324.36 7.50 -78.35 321.63 7.50 -78.35 
318.88 7.50 -78.35 316.12 7.50 -78.35 313.36 7.50 -78.35 
310.58 7.50 -78.35 307.81 7.50 -78.35 305.02 7.50 -78.35 
302.23 7.50 -78.35 299.44 7.50 -78.35 296.64 7.50 -78.35 
293.84 7.50 -78.35 291.04 7.50 -78.35 288.24 7.50 -78.35 
285.44 7.50 -78.35 282.63 7.50 -78.35 279.83 7.50 -78.35 
277.03 7.50 -78.35 274.23 7.50 -78.35 271.42 7.50 -78.35 
268.63 7.50 -78.35 265.83 7.50 -78.35 263.04 7.50 -78.35 
260.24 7.50 -78.35 257.46 7.50 -78.35 254.67 7.50 -78.35 
251.89 7.50 -78.35 249.12 7.50 -78.35 246.35 7.50 -78.35 
243.59 7.50 -78.35 240.83 7.50 -78.35 238.08 7.50 -78.35 
235.33 7.50 -78.35 232.59 7.50 -78.35 229.86 7.50 -78.35 
227.13 7.50 -78.35 224.42 7.50 -78.35 221.71 7.50 -78.35 
219.00 7.50 -78.35 216.31 7.50 -78.35 213.62 7.50 -78.35 
210.93 7.50 -78.35 208.26 7.50 -78.35 205.59 7.50 -78.35 
202.93 7.50 -78.35 200.28 7.50 -78.35 197.63 7.50 -78.35 
194.99 7.50 -78.35 192.35 7.50 -78.35 189.73 7.50 -78.35 
187.10 7.50 -78.35 184.48 7.50 -78.35 181.87 7.50 -78.35 
179.26 7.50 -78.35 176.66 7.50 -78.35 174.06 7.50 -78.35 
171.47 7.50 -78.35 168.88 7.50 -78.35 166.29 7.50 -78.36 
163.71 7.50 -78.36 161.14 7.50 -78.37 158.56 7.50 -78.38 
156.00 7.50 -78.40 153.44 7.50 -78.43 150.89 7.50 -78.48 
148.36 7.50 -78.55 145.84 7.50 -78.65 143.35 7.50 -78.80 
140.88 7.50 -79.00 138.46 7.50 -79.28 136.08 7.50 -79.65 
133.76 7.50 -80.12 131.52 7.50 -80.70 129.38 7.50 -81.43 
127.33 7.50 -82.29 125.41 7.50 -83.31 123.61 7.50 -84.49 
121.97 7.50 -85.83 120.48 7.50 -87.32 119.14 7.50 -88.96 
117.98 7.50 -90.73 116.97 7.50 -92.63 116.11 7.50 -94.65 
115.41 7.50 -96.76 114.83 7.50 -98.95 114.38 7.50 -101.21 
114.02 7.50 -103.54 113.75 7.50 -105.91 113.56 7.50 -108.32 
113.41 7.50 -110.76 113.31 7.50 -113.23 113.25 7.50 -115.72 
113.20 7.50 -118.23 113.17 7.50 -120.75 113.15 7.50 -123.29 
113.14 7.50 -125.83 113.14 7.50 -128.38 113.13 7.50 -130.94 
113.13 7.50 -133.51 113.13 7.50 -136.07 113.13 7.50 -138.64 
[...]
POINT_DATA 1850
FIELD FieldData 1
MaximumInscribedSphereRadius 1 1850 double
2.50 2.50 2.50 2.50 2.50 2.50 2.50 2.50 2.50 
2.50 2.50 2.50 2.50 2.50 2.50 2.50 2.50 2.50 
2.50 2.50 2.50 2.50 2.50 2.50 2.50 2.50 2.50 
2.50 2.50 2.50 2.50 2.50 2.50 2.50 2.50 2.50 
2.50 2.50 2.50 2.50 2.50 2.50 2.50 2.50 2.50 
2.50 2.50 2.50 2.50 2.50 2.50 2.50 2.50 2.50 
2.50 2.50 2.50 2.49 2.49 2.49 2.49 2.49 2.49 
2.49 2.49 2.49 2.49 2.49 2.49 2.49 2.50 2.50 
2.50 2.50 2.50 2.50 2.50 2.50 2.50 2.50 2.50 
2.50 2.50 2.50 2.50 2.50 2.50 2.50 2.50 2.50 
2.50 2.50 2.50 2.49 2.49 2.49 2.49 2.49 2.49 
2.49 2.49 2.49 2.50 2.50 2.50 2.50 2.50 2.50 
2.50 2.50 2.50 2.50 2.50 2.50 2.50 2.50 2.50 
2.50 2.50 2.50 2.50 2.50 2.50 2.50 2.50 2.50 
2.50 2.50 2.50 2.50 2.50 2.50 2.50 2.50 2.50 
2.50 2.50 2.50 2.50 2.50 2.50 2.50 2.50 2.50 
2.50 2.50 2.50 2.50 2.50 2.50 2.50 2.50 2.50 
2.50 2.50 2.50 2.50 2.50 2.50 2.50 2.50 2.50 
2.50 2.50 2.50 2.50 2.50 2.50 2.50 2.50 2.50 
2.50 2.50 2.50 2.50 2.50 2.50 2.50 2.50 2.50 
2.50 2.50 2.50 2.50 2.50 2.50 2.50 2.50 2.50 
2.50 2.50 2.50 2.50 2.50 2.50 2.50 2.50 2.50 
2.50 2.50 2.50 2.50 2.50 2.50 2.50 2.50 2.50 
2.50 2.50 2.50 2.50 2.50 2.50 2.50 2.50 2.50 
2.50 2.50 2.50 2.50 2.50 2.50 2.50 2.50 2.50 
2.50 2.50 2.50 2.50 2.50 2.50 2.50 2.50 2.50 
2.50 2.50 2.50 2.50 2.50 2.50 2.50 2.50 2.50 
2.50 2.50 2.50 2.50 2.50 2.50 2.50 2.50 2.50 
2.50 2.50 2.50 2.50 2.50 2.50 2.50 2.50 2.50 
2.50 2.50 2.50 2.50 2.50 2.50 2.50 2.50 2.50 
2.50 2.50 2.50 2.50 2.50 2.50 2.50 2.50 2.50 
2.50 2.50 2.50 2.50 2.50 2.50 2.50 2.50 2.50 
2.50 2.50 2.50 2.50 2.50 2.50 2.50 2.50 2.50 
2.50 2.50 2.50 2.50 2.50 2.50 2.50 2.50 2.50 
2.50 2.50 2.50 2.50 2.50 2.50 2.50 2.50 2.50 
2.50 2.50 2.50 2.50 2.50 2.50 2.50 2.50 2.50 
2.50 2.50 2.50 2.50 2.50 2.50 2.50 2.50 2.50 
2.50 2.50 2.50 2.50 2.50 2.50 2.50 2.50 2.50 
2.50 2.50 2.50 2.50 2.50 2.50 2.50 2.50 2.50 
2.50 2.50 2.50 2.50 2.50 2.50 2.50 2.50 2.50 
2.50 2.50 2.50 2.50 2.50 2.50 2.50 2.50 2.50 
2.50 2.50 2.50 2.50 2.50 2.50 2.50 2.50 2.50 
2.50 2.50 2.50 2.50 2.50 2.50 2.50 2.50 2.50 
2.50 2.50 2.50 2.50 2.50 2.50 2.50 2.50 2.50 
2.50 2.50 2.50 2.50 2.50 2.50 2.50 2.50 2.50 
2.50 2.50 2.50 2.50 2.50 2.50 2.50 2.50 2.50 
2.50 2.50 2.50 2.50 2.50 2.50 2.50 2.50 2.50 
2.50 2.50 2.50 2.50 2.50 2.50 2.50 2.50 2.50 
2.50 2.50 2.50 2.50 2.50 2.50 2.50 2.50 2.50 
2.50 2.50 2.50 2.50 2.50 2.50 2.50 2.50 2.50 
2.50 2.50 2.50 2.50 2.50 2.50 2.50 2.50 2.50 
2.50 2.50 2.50 2.50 2.50 2.50 2.50 2.50 2.49 
2.49 2.49 2.49 2.48 2.48 2.48 2.48 2.47 2.47 
2.47 2.47 2.47 2.47 2.47 2.48 2.48 2.48 2.48 
2.49 2.49 2.49 2.49 2.50 2.50 2.50 2.50 2.50 
2.50 2.50 2.50 2.50 2.50 2.50 2.50 2.50 2.50 
2.50 2.50 2.50 2.50 2.50 2.50 2.50 2.50 2.50 
2.50 2.50 2.50 2.50 2.50 2.50 2.50 2.50 2.50 
2.50 2.50 2.50 2.50 2.50 2.50 2.50 2.50 2.50 
2.50 2.50 2.50 2.50 2.50 2.50 2.50 2.50 2.50 
2.50 2.50 2.50 2.50 2.50 2.50 2.50 2.50 2.50 
2.50 2.50 2.50 2.50 2.50 2.50 2.50 2.50 2.50 
2.50 2.50 2.50 2.50 2.50 2.50 2.50 2.50 2.50 
2.50 2.50 2.50 2.50 2.50 2.50 2.50 2.50 2.50 
2.50 2.50 2.50 2.50 2.50 2.50 2.50 2.50 2.50 
2.50 2.50 2.50 2.50 2.50 2.50 2.50 2.50 2.50 
2.50 2.50 2.50 2.50 2.50 2.50 2.50 2.50 2.50 
2.50 2.50 2.50 2.50 2.50 2.50 2.50 2.50 2.50 
2.50 2.50 2.50 2.50 2.50 2.50 2.50 2.50 2.50 
2.50 2.50 2.50 2.50 2.50 2.50 2.50 2.50 2.50 
2.50 2.50 2.50 2.50 2.50 2.50 2.50 2.50 2.50 
2.50 2.50 2.50 2.50 2.50 2.50 2.49 2.49 2.49 
2.49 2.49 2.49 2.48 2.48 2.48 2.48 2.48 2.48 
2.48 2.48 2.48 2.48 2.48 2.48 2.48 2.48 2.48 
2.48 2.48 2.48 2.48 2.48 2.48 2.48 2.48 2.48 
2.48 2.48 2.48 2.48 2.48 2.48 2.48 2.48 2.48 
2.48 2.48 2.48 2.48 2.48 2.48 2.48 2.48 2.48 
2.48 2.48 2.48 2.48 2.48 2.48 2.48 2.48 2.48 
2.48 2.48 2.48 2.48 2.48 2.48 2.48 2.48 2.48 
2.48 2.48 2.48 2.48 2.48 2.48 2.48 2.48 2.48 
2.48 2.48 2.48 2.48 2.48 2.48 2.48 2.48 2.48 
2.48 2.48 2.48 2.48 2.48 2.48 2.48 2.48 2.48 
2.48 2.48 2.48 2.48 2.48 2.48 2.48 2.48 2.48 
2.48 2.48 2.48 2.48 2.48 2.48 2.48 2.48 2.48 
2.48 2.47 2.47 2.47 2.47 2.47 2.47 2.47 2.47 
2.47 2.46 2.46 2.46 2.46 2.46 2.46 2.47 2.47 
2.47 2.47 2.47 2.48 2.48 2.48 2.49 2.49 2.49 
2.50 2.50 2.50 2.50 2.51 2.51 2.51 2.51 2.51 
2.51 2.51 2.51 2.51 2.51 2.51 2.51 2.51 2.51 
2.51 2.51 2.51 2.51 2.51 2.51 2.51 2.51 2.51 
2.51 2.51 2.51 2.51 2.51 2.51 2.50 2.50 2.50 
2.50 2.50 2.50 2.49 2.49 2.49 2.48 2.48 2.48 
2.47 2.47 2.47 2.47 2.48 2.48 2.48 2.48 2.49 
2.49 2.49 2.49 2.50 2.50 2.50 2.50 2.50 2.50 
2.50 2.50 2.50 2.50 2.50 2.50 2.49 2.49 2.49 
2.49 2.49 2.49 2.48 2.48 2.48 2.48 2.48 2.48 
2.48 2.48 2.48 2.48 2.48 2.48 2.48 2.48 2.48 
2.48 2.48 2.48 2.48 2.48 2.48 2.48 2.48 2.48 
2.48 2.48 2.48 2.48 2.48 2.48 2.48 2.48 2.48 
2.48 2.48 2.48 2.48 2.48 2.48 2.48 2.48 2.48 
2.48 2.48 2.48 2.48 2.48 2.48 2.48 2.48 2.48 
2.48 2.48 2.48 2.48 2.48 2.48 2.48 2.48 2.48 
2.48 2.48 2.48 2.48 2.48 2.48 2.48 2.48 2.48 
2.48 2.48 2.48 2.48 2.48 2.48 2.48 2.48 2.48 
2.48 2.48 2.48 2.48 2.48 2.48 2.48 2.48 2.48 
2.48 2.48 2.48 2.48 2.48 2.48 2.48 2.48 2.48 
2.48 2.48 2.48 2.48 2.48 2.48 2.48 2.48 2.48 
2.48 2.48 2.48 2.48 2.48 2.48 2.48 2.48 2.48 
2.48 2.48 2.48 2.48 2.48 2.48 2.48 2.48 2.49 
2.49 2.49 2.49 2.49 2.49 2.50 2.50 2.50 2.50 
2.50 2.50 2.50 2.50 2.50 2.50 2.50 2.50 2.50 
2.50 2.50 2.50 2.50 2.50 2.50 2.50 2.50 2.50 
2.50 2.50 2.50 2.50 2.50 2.50 2.50 2.50 2.50 
2.50 2.50 2.50 2.50 2.50 2.50 2.50 2.50 2.50 
2.50 2.50 2.50 2.50 2.50 2.50 2.50 2.50 2.50 
2.50 2.50 2.50 2.50 2.50 2.50 2.50 2.50 2.50 
2.50 2.50 2.50 2.50 2.50 2.50 2.50 2.50 2.50 
2.50 2.50 2.50 2.50 2.50 2.50 2.50 2.50 2.50 
2.50 2.50 2.50 2.50 2.50 2.50 2.50 2.50 2.50 
2.50 2.50 2.50 2.50 2.50 2.50 2.50 2.49 2.49 
2.49 2.49 2.49 2.49 2.49 2.49 2.49 2.49 2.49 
2.49 2.49 2.49 2.49 2.49 2.49 2.49 2.49 2.49 
2.49 2.49 2.49 2.49 2.49 2.49 2.49 2.49 2.49 
2.49 2.49 2.49 2.49 2.49 2.49 2.49 2.49 2.49 
2.49 2.49 2.49 2.49 2.49 2.49 2.49 2.49 2.49 
2.49 2.49 2.49 2.49 2.49 2.49 2.49 2.49 2.49 
2.49 2.49 2.49 2.49 2.49 2.49 2.49 2.49 2.49 
2.49 2.49 2.49 2.49 2.49 2.49 2.49 2.49 2.49 
2.49 2.49 2.49 2.49 2.49 2.49 2.49 2.49 2.49 
2.49 2.49 2.49 2.49 2.49 2.49 2.49 2.49 2.49 
2.49 2.49 2.49 2.49 2.49 2.49 2.49 2.49 2.49 
2.49 2.49 2.49 2.49 2.49 2.49 2.49 2.49 2.49 
2.49 2.49 2.49 2.49 2.49 2.49 2.49 2.49 2.49 
2.49 2.49 2.50 2.50 2.50 2.50 2.50 2.50 2.50 
2.50 2.50 2.50 2.50 2.50 2.50 2.50 2.50 2.50 
2.50 2.50 2.50 2.50 2.50 2.50 2.50 2.50 2.50 
2.50 2.50 2.50 2.50 2.50 2.50 2.50 2.50 2.50 
2.50 2.50 2.50 2.50 2.50 2.50 2.50 2.50 2.50 
2.50 2.50 2.50 2.50 2.50 2.50 2.50 2.50 2.50 
2.50 2.50 2.50 2.50 2.50 2.50 2.50 2.50 2.50 
2.50 2.50 2.50 2.50 2.50 2.50 2.50 2.50 2.50 
2.50 2.50 2.50 2.50 2.50 2.50 2.50 2.50 2.50 
2.50 2.50 2.50 2.50 2.50 2.50 2.50 2.50 2.50 
2.50 2.50 2.50 2.50 2.50 2.50 2.50 2.50 2.50 
2.50 2.50 2.49 2.49 2.49 2.49 2.49 2.49 2.49 
2.49 2.49 2.49 2.49 2.49 2.49 2.49 2.49 2.49 
2.49 2.49 2.49 2.49 2.49 2.49 2.49 2.49 2.49 
2.49 2.49 2.49 2.49 2.49 2.49 2.49 2.49 2.49 
2.49 2.49 2.49 2.49 2.49 2.49 2.49 2.49 2.49 
2.49 2.49 2.49 2.49 2.49 2.49 2.49 2.49 2.49 
2.49 2.49 2.49 2.49 2.49 2.49 2.49 2.49 2.49 
2.49 2.49 2.49 2.49 2.49 2.49 2.49 2.49 2.49 
2.49 2.49 2.49 2.49 2.49 2.49 2.49 2.49 2.49 
2.49 2.49 2.49 2.49 2.49 2.49 2.49 2.49 2.49 
2.49 2.49 2.49 2.49 2.49 2.49 2.49 2.49 2.49 
2.49 2.49 2.49 2.49 2.49 2.49 2.49 2.49 2.49 
2.49 2.49 2.49 2.49 2.49 2.49 2.49 2.49 2.49 
2.49 2.49 2.49 2.49 2.50 2.50 2.50 2.50 2.50 
2.50 2.50 2.50 2.50 2.50 2.50 2.50 2.50 2.50 
2.50 2.50 2.50 2.50 2.50 2.50 2.50 2.50 2.50 
2.50 2.50 2.50 2.50 2.50 2.50 2.50 2.50 2.50 
2.50 2.50 2.50 2.50 2.50 2.50 2.50 2.50 2.50 
2.50 2.50 2.50 2.50 2.50 2.50 2.50 2.50 2.50 
2.50 2.50 2.50 2.50 2.50 2.50 2.50 2.50 2.50 
2.50 2.50 2.50 2.50 2.50 2.50 2.50 2.50 2.50 
2.50 2.50 2.50 2.50 2.50 2.50 2.50 2.50 2.50 
2.50 2.50 2.50 2.50 2.50 2.50 2.50 2.50 2.50 
2.50 2.50 2.50 2.50 2.50 2.50 2.50 2.50 2.50 
2.50 2.50 2.50 2.50 2.50 2.50 2.50 2.50 2.50 
2.50 2.50 2.50 2.50 2.50 2.50 2.50 2.50 2.50 
2.50 2.50 2.50 2.50 2.50 2.50 2.50 2.50 2.50 
2.50 2.50 2.50 2.50 2.50 2.50 2.50 2.50 2.50 
2.50 2.50 2.50 2.50 2.50 2.50 2.50 2.50 2.50 
2.50 2.50 2.50 2.50 2.50 2.50 2.50 2.50 2.50 
2.50 2.50 2.50 2.50 2.50 2.50 2.50 2.50 2.50 
2.50 2.50 2.50 2.50 2.50 2.50 2.50 2.50 2.50 
2.50 2.50 2.50 2.50 2.50 2.50 2.50 2.50 2.50 
2.50 2.50 2.50 2.50 2.50 2.50 2.50 2.50 2.50 
2.50 2.50 2.50 2.50 2.50 2.50 2.50 2.50 2.50 
2.50 2.50 2.50 2.50 2.50 2.50 2.50 2.50 2.50 
2.50 2.50 2.50 2.50 2.50 2.50 2.50 2.50 2.50 
2.50 2.50 2.50 2.50 2.50 2.50 2.50 2.50 2.50 
2.50 2.50 2.50 2.50 2.50 2.50 2.50 2.50 2.50 
2.50 2.50 2.50 2.50 2.50 2.50 2.50 2.50 2.50 
2.50 2.50 2.50 2.50 2.50 2.50 2.50 2.50 2.50 
2.50 2.50 2.50 2.50 2.50 2.50 2.50 2.50 2.50 
2.50 2.50 2.50 2.50 2.50 2.50 2.50 2.50 2.50 
2.50 2.50 2.50 2.50 2.50 2.50 2.50 2.50 2.50 
2.50 2.50 2.50 2.50 2.50 2.50 2.50 2.50 2.50 
2.50 2.50 2.50 2.50 2.50 2.50 2.50 2.50 2.50 
2.50 2.50 2.50 2.50 2.50 2.50 2.50 2.50 2.50 
2.50 2.50 2.50 2.50 2.50 2.50 2.50 2.50 2.50 
2.50 2.50 2.50 2.50 2.50 2.50 2.50 2.50 2.50 
2.50 2.50 2.50 2.50 2.49 2.49 2.49 2.49 2.49 
2.49 2.49 2.49 2.49 2.49 2.49 2.49 2.49 2.49 
2.49 2.49 2.49 2.49 2.49 2.49 2.49 2.49 2.49 
2.49 2.49 2.49 2.49 2.49 2.49 2.49 2.49 2.49 
2.49 2.49 2.49 2.49 2.49 2.49 2.49 2.49 2.49 
2.49 2.49 2.49 2.49 2.49 2.49 2.49 2.49 2.49 
2.49 2.50 2.50 2.50 2.50 2.50 2.50 2.50 2.50 
2.50 2.50 2.50 2.50 2.50 2.50 2.50 2.50 2.50 
2.50 2.50 2.50 2.50 2.50 2.50 2.50 2.50 2.50 
2.50 2.50 2.50 2.50 2.50 2.50 2.50 2.50 2.50 
2.50 2.50 2.50 2.50 2.50 2.50 2.50 2.50 2.50 
2.50 2.50 2.50 2.50 2.50 2.50 2.50 2.50 2.50 
2.50 2.50 2.50 2.50 2.50 
