# vtk DataFile Version 3.0
vtk output
ASCII
DATASET POLYDATA
POINTS 20 float
2224.18 -386.61 912.59 2230.70 -386.68 912.56 2238.42 -386.58 912.50 
2247.20 -386.08 912.36 2256.90 -384.92 912.03 2267.34 -382.74 911.38 
2278.20 -379.21 910.25 2289.02 -374.09 908.49 2299.11 -367.35 906.00 
2307.74 -359.21 902.73 2314.33 -350.09 898.72 2318.63 -340.51 894.04 
2320.80 -330.93 888.82 2321.32 -321.74 883.23 2320.83 -313.19 877.50 
2319.93 -305.45 871.89 2319.04 -298.67 866.70 2318.36 -292.97 862.16 
2208.17 -386.04 912.66 2317.67 -279.27 850.88 
LINES 1 21
20 19 17 16 15 14 13 12 11 10 9 8 7 6 5 4 3 2 1 0 18 
POINT_DATA 20
FIELD FieldData 1
MaximumInscribedSphereRadius 1 20 double
27.08 27.15 27.16 27.07 26.90 26.65 26.34 26.02 25.71 
25.46 25.26 25.14 25.06 25.00 24.93 24.83 24.69 24.52 
26.96 24.33 
