# vtk DataFile Version 3.0
vtk output
ASCII
DATASET POLYDATA
POINTS 12 float
1714.49 -242.86 1121.16 1690.59 -240.93 1128.67 1655.47 -238.06 1139.65 
1609.23 -234.21 1154.07 1554.72 -229.55 1171.08 1497.20 -224.48 1189.09 
1442.87 -219.49 1206.21 1396.94 -215.05 1220.84 1362.19 -211.47 1232.08 
1338.67 -208.83 1239.86 1743.62 -245.17 1111.83 1310.40 -204.75 1250.02 

LINES 1 13
12 11 9 8 7 6 5 4 3 2 1 0 10 
POINT_DATA 12
FIELD FieldData 1
MaximumInscribedSphereRadius 1 12 double
34.60 34.59 34.06 32.90 31.16 29.03 26.80 24.74 23.01 
21.70 34.26 20.76 
