# vtk DataFile Version 3.0
vtk output
ASCII
DATASET POLYDATA
POINTS 1316 float
-313.69 -4.37 148.65 -312.54 -4.37 148.64 -311.26 -4.36 148.62 
-309.90 -4.36 148.59 -308.49 -4.35 148.55 -307.06 -4.35 148.48 
-305.61 -4.34 148.38 -304.16 -4.34 148.24 -302.73 -4.34 148.04 
-301.33 -4.33 147.77 -299.98 -4.33 147.41 -298.69 -4.33 146.95 
-297.48 -4.33 146.38 -296.36 -4.32 145.67 -295.35 -4.32 144.84 
-294.45 -4.32 143.87 -293.66 -4.32 142.77 -292.99 -4.32 141.55 
-292.43 -4.32 140.23 -291.98 -4.32 138.81 -291.62 -4.32 137.31 
-291.35 -4.32 135.75 -291.14 -4.33 134.15 -290.99 -4.33 132.52 
-290.88 -4.33 130.86 -290.80 -4.33 129.19 -290.75 -4.33 127.51 
-290.72 -4.33 125.82 -290.69 -4.33 124.13 -290.68 -4.33 122.43 
-290.67 -4.33 120.72 -290.66 -4.33 119.01 -290.65 -4.33 117.30 
-290.64 -4.33 115.58 -290.64 -4.33 113.85 -290.63 -4.33 112.12 
-290.62 -4.33 110.37 -290.62 -4.33 108.62 -290.61 -4.33 106.87 
-290.61 -4.33 105.10 -290.60 -4.33 103.33 -290.60 -4.33 101.55 
-290.59 -4.33 99.77 -290.58 -4.33 97.98 -290.58 -4.33 96.19 
-290.57 -4.33 94.39 -290.57 -4.33 92.60 -290.56 -4.33 90.80 
-290.55 -4.33 89.00 -290.55 -4.33 87.20 -290.54 -4.33 85.41 
-290.54 -4.33 83.62 -290.53 -4.33 81.84 -290.53 -4.33 80.06 
-290.52 -4.33 78.28 -290.51 -4.33 76.51 -290.51 -4.33 74.75 
-290.50 -4.33 73.00 -290.50 -4.33 71.25 -290.49 -4.33 69.51 
-290.49 -4.33 67.77 -290.48 -4.33 66.04 -290.47 -4.33 64.31 
-290.47 -4.33 62.58 -290.46 -4.33 60.86 -290.46 -4.33 59.13 
-290.45 -4.33 57.40 -290.45 -4.33 55.68 -290.44 -4.33 53.95 
-290.43 -4.33 52.21 -290.43 -4.33 50.48 -290.42 -4.33 48.74 
-290.42 -4.33 47.01 -290.41 -4.33 45.27 -290.41 -4.33 43.52 
-290.40 -4.33 41.78 -290.39 -4.33 40.04 -290.39 -4.33 38.30 
-290.38 -4.33 36.56 -290.38 -4.33 34.83 -290.37 -4.33 33.10 
-290.37 -4.33 31.37 -290.36 -4.33 29.64 -290.36 -4.33 27.92 
-290.35 -4.33 26.21 -290.34 -4.33 24.50 -290.34 -4.33 22.79 
-290.33 -4.33 21.08 -290.33 -4.33 19.38 -290.32 -4.33 17.68 
-290.32 -4.33 15.98 -290.31 -4.33 14.28 -290.31 -4.33 12.58 
-290.30 -4.33 10.87 -290.29 -4.33 9.17 -290.29 -4.33 7.47 
-290.28 -4.33 5.76 -290.28 -4.33 4.05 -290.27 -4.33 2.34 
-290.27 -4.33 0.63 -290.26 -4.33 -1.08 -290.25 -4.33 -2.79 
-290.25 -4.33 -4.51 -290.24 -4.33 -6.22 -290.24 -4.33 -7.93 
-290.23 -4.33 -9.64 -290.23 -4.33 -11.34 -290.22 -4.33 -13.05 
-290.22 -4.33 -14.75 -290.21 -4.33 -16.44 -290.20 -4.33 -18.13 
-290.20 -4.33 -19.82 -290.19 -4.33 -21.51 -290.19 -4.33 -23.18 
-290.18 -4.33 -24.86 -290.18 -4.33 -26.53 -290.17 -4.33 -28.19 
-290.17 -4.33 -29.85 -290.16 -4.33 -31.51 -290.16 -4.33 -33.17 
-290.15 -4.33 -34.82 -290.15 -4.33 -36.47 -290.14 -4.33 -38.11 
-290.13 -4.33 -39.76 -290.13 -4.33 -41.40 -290.12 -4.33 -43.04 
-290.12 -4.33 -44.68 -290.11 -4.33 -46.33 -290.11 -4.33 -47.97 
-290.10 -4.33 -49.62 -290.10 -4.33 -51.26 -290.09 -4.33 -52.92 
-290.09 -4.33 -54.57 -290.08 -4.33 -56.23 -290.08 -4.33 -57.89 
-290.07 -4.33 -59.56 -290.06 -4.33 -61.23 -290.06 -4.33 -62.90 
-290.05 -4.33 -64.58 -290.05 -4.33 -66.26 -290.04 -4.33 -67.95 
-290.04 -4.33 -69.63 -290.03 -4.33 -71.32 -290.03 -4.33 -73.01 
-290.02 -4.33 -74.70 -290.01 -4.33 -76.39 -290.01 -4.33 -78.07 
-290.00 -4.33 -79.76 -290.00 -4.33 -81.44 -289.99 -4.33 -83.11 
-289.99 -4.33 -84.78 -289.98 -4.33 -86.45 -289.98 -4.33 -88.10 
-289.97 -4.33 -89.76 -289.97 -4.33 -91.40 -289.96 -4.33 -93.04 
-289.96 -4.33 -94.68 -289.95 -4.33 -96.31 -289.94 -4.33 -97.93 
-289.94 -4.33 -99.55 -289.93 -4.33 -101.16 -289.93 -4.33 -102.77 
-289.92 -4.33 -104.37 -289.92 -4.33 -105.97 -289.91 -4.33 -107.56 
-289.91 -4.33 -109.16 -289.90 -4.33 -110.74 -289.90 -4.33 -112.33 
-289.89 -4.33 -113.92 -289.89 -4.33 -115.50 -289.88 -4.33 -117.08 
-289.88 -4.33 -118.66 -289.87 -4.33 -120.23 -289.87 -4.33 -121.81 
-289.86 -4.33 -123.39 -289.86 -4.33 -124.96 -289.85 -4.33 -126.54 
-289.85 -4.33 -128.11 -289.84 -4.33 -129.69 -289.84 -4.33 -131.27 
-289.83 -4.33 -132.85 -289.83 -4.33 -134.42 -289.82 -4.33 -136.01 
-289.82 -4.33 -137.59 -289.81 -4.33 -139.17 -289.80 -4.33 -140.76 
-289.80 -4.33 -142.35 -289.79 -4.33 -143.94 -289.79 -4.33 -145.53 
-289.78 -4.33 -147.13 -289.78 -4.33 -148.73 -289.77 -4.33 -150.34 
-289.77 -4.33 -151.94 -289.76 -4.33 -153.56 -289.76 -4.33 -155.17 
-289.75 -4.33 -156.80 -289.75 -4.33 -158.43 -289.74 -4.33 -160.06 
-289.74 -4.33 -161.70 -289.73 -4.33 -163.35 -289.73 -4.33 -165.00 
-289.72 -4.33 -166.66 -289.71 -4.33 -168.33 -289.71 -4.33 -170.01 
-289.70 -4.33 -171.70 -289.70 -4.33 -173.39 -289.69 -4.33 -175.09 
-289.69 -4.33 -176.81 -289.68 -4.33 -178.53 -289.68 -4.33 -180.25 
-289.67 -4.33 -181.99 -289.66 -4.33 -183.73 -289.66 -4.33 -185.48 
-289.65 -4.33 -187.23 -289.65 -4.33 -188.99 -289.64 -4.33 -190.75 
-289.64 -4.33 -192.51 -289.63 -4.33 -194.28 -289.62 -4.33 -196.04 
-289.62 -4.33 -197.80 -289.61 -4.33 -199.56 -289.61 -4.33 -201.31 
-289.60 -4.33 -203.06 -289.60 -4.33 -204.80 -289.59 -4.33 -206.54 
-289.58 -4.33 -208.27 -289.58 -4.33 -210.00 -289.57 -4.33 -211.72 
-289.57 -4.33 -213.43 -289.56 -4.33 -215.14 -289.56 -4.33 -216.85 
-289.55 -4.33 -218.55 -289.55 -4.33 -220.25 -289.54 -4.33 -221.94 
-289.53 -4.33 -223.63 -289.53 -4.33 -225.33 -289.52 -4.33 -227.01 
-289.52 -4.33 -228.70 -289.51 -4.33 -230.39 -289.51 -4.33 -232.08 
-289.50 -4.33 -233.76 -289.50 -4.33 -235.45 -289.49 -4.33 -237.13 
-289.48 -4.33 -238.82 -289.48 -4.33 -240.50 -289.47 -4.33 -242.18 
-289.47 -4.33 -243.87 -289.46 -4.33 -245.55 -289.46 -4.33 -247.23 
-289.45 -4.33 -248.91 -289.45 -4.33 -250.59 -289.44 -4.33 -252.27 
-289.44 -4.33 -253.94 -289.43 -4.33 -255.62 -289.42 -4.33 -257.30 
-289.42 -4.33 -258.98 -289.41 -4.33 -260.66 -289.41 -4.33 -262.34 
-289.40 -4.33 -264.01 -289.40 -4.33 -265.69 -289.39 -4.33 -267.36 
-289.39 -4.33 -269.04 -289.38 -4.33 -270.71 -289.38 -4.33 -272.39 
-289.37 -4.33 -274.06 -289.36 -4.33 -275.73 -289.36 -4.33 -277.41 
-289.35 -4.33 -279.08 -289.34 -4.33 -280.76 -289.34 -4.33 -282.44 
-289.33 -4.33 -284.13 -289.32 -4.33 -285.81 -289.30 -4.33 -287.50 
-289.28 -4.33 -289.19 -289.26 -4.33 -290.89 -289.22 -4.33 -292.59 
-289.17 -4.33 -294.28 -289.11 -4.33 -295.98 -289.03 -4.33 -297.68 
-288.92 -4.33 -299.37 -288.78 -4.33 -301.05 -288.61 -4.33 -302.73 
-288.41 -4.33 -304.39 -288.15 -4.33 -306.04 -287.85 -4.33 -307.67 
-287.50 -4.33 -309.29 -287.10 -4.33 -310.88 -286.64 -4.33 -312.44 
-286.13 -4.33 -313.98 -285.55 -4.33 -315.49 -284.92 -4.33 -316.96 
-284.23 -4.33 -318.40 -283.48 -4.33 -319.80 -282.68 -4.33 -321.17 
-281.82 -4.33 -322.49 -280.91 -4.33 -323.77 -279.95 -4.33 -325.01 
-278.95 -4.33 -326.19 -277.89 -4.33 -327.33 -276.79 -4.33 -328.43 
-275.65 -4.33 -329.47 -274.47 -4.33 -330.46 -273.25 -4.33 -331.40 
-271.99 -4.33 -332.28 -270.70 -4.33 -333.11 -269.37 -4.33 -333.89 
-268.01 -4.33 -334.60 -266.62 -4.33 -335.26 -265.20 -4.33 -335.86 
-263.75 -4.33 -336.40 -262.28 -4.33 -336.88 -260.78 -4.33 -337.30 
-259.26 -4.33 -337.66 -257.73 -4.33 -337.95 -256.17 -4.33 -338.17 
-254.61 -4.33 -338.33 -253.03 -4.33 -338.42 -251.44 -4.33 -338.44 
-249.85 -4.33 -338.39 -248.26 -4.33 -338.28 -246.67 -4.33 -338.10 
-245.08 -4.33 -337.84 -243.50 -4.33 -337.52 -241.94 -4.33 -337.13 
-240.39 -4.33 -336.67 -238.86 -4.33 -336.14 -237.35 -4.33 -335.55 
-235.87 -4.33 -334.89 -234.42 -4.33 -334.17 -233.01 -4.33 -333.39 
-231.63 -4.33 -332.54 -230.29 -4.33 -331.64 -229.00 -4.33 -330.69 
-227.75 -4.33 -329.68 -226.55 -4.33 -328.62 -225.40 -4.33 -327.51 
-224.31 -4.33 -326.36 -223.26 -4.33 -325.16 -222.28 -4.33 -323.91 
-221.34 -4.33 -322.63 -220.47 -4.33 -321.30 -219.65 -4.33 -319.94 
-218.89 -4.33 -318.54 -218.19 -4.33 -317.11 -217.55 -4.33 -315.64 
-216.97 -4.33 -314.13 -216.45 -4.33 -312.60 -215.99 -4.33 -311.04 
-215.59 -4.33 -309.46 -215.23 -4.33 -307.85 -214.93 -4.33 -306.22 
-214.68 -4.33 -304.58 -214.48 -4.33 -302.92 -214.31 -4.33 -301.26 
-214.18 -4.33 -299.58 -214.07 -4.33 -297.90 -214.00 -4.33 -296.22 
-213.94 -4.33 -294.54 -213.90 -4.33 -292.86 -213.88 -4.33 -291.18 
-213.86 -4.33 -289.51 -213.85 -4.33 -287.84 -213.84 -4.33 -286.18 
-213.84 -4.33 -284.53 -213.84 -4.33 -282.88 -213.85 -4.33 -281.24 
-213.85 -4.33 -279.60 -213.86 -4.33 -277.97 -213.86 -4.33 -276.34 
-213.87 -4.33 -274.72 -213.87 -4.33 -273.10 -213.88 -4.33 -271.49 
-213.88 -4.33 -269.88 -213.89 -4.33 -268.27 -213.89 -4.33 -266.66 
-213.90 -4.33 -265.05 -213.90 -4.33 -263.44 -213.91 -4.33 -261.83 
-213.91 -4.33 -260.21 -213.92 -4.33 -258.60 -213.92 -4.33 -256.98 
-213.93 -4.33 -255.36 -213.93 -4.33 -253.73 -213.94 -4.33 -252.11 
-213.94 -4.33 -250.47 -213.95 -4.33 -248.84 -213.95 -4.33 -247.20 
-213.96 -4.33 -245.56 -213.96 -4.33 -243.91 -213.97 -4.33 -242.26 
-213.97 -4.33 -240.61 -213.98 -4.33 -238.95 -213.98 -4.33 -237.29 
-213.99 -4.33 -235.62 -213.99 -4.33 -233.95 -214.00 -4.33 -232.27 
-214.00 -4.33 -230.59 -214.01 -4.33 -228.90 -214.01 -4.33 -227.21 
-214.02 -4.33 -225.51 -214.03 -4.33 -223.81 -214.03 -4.33 -222.09 
-214.04 -4.33 -220.37 -214.04 -4.33 -218.65 -214.05 -4.33 -216.91 
-214.05 -4.33 -215.17 -214.06 -4.33 -213.43 -214.06 -4.33 -211.68 
-214.07 -4.33 -209.92 -214.07 -4.33 -208.16 -214.08 -4.33 -206.40 
-214.09 -4.33 -204.64 -214.09 -4.33 -202.87 -214.10 -4.33 -201.11 
-214.10 -4.33 -199.34 -214.11 -4.33 -197.58 -214.11 -4.33 -195.82 
-214.12 -4.33 -194.07 -214.12 -4.33 -192.32 -214.13 -4.33 -190.58 
-214.14 -4.33 -188.84 -214.14 -4.33 -187.11 -214.15 -4.33 -185.39 
-214.15 -4.33 -183.67 -214.16 -4.33 -181.96 -214.16 -4.33 -180.26 
-214.17 -4.33 -178.56 -214.17 -4.33 -176.86 -214.18 -4.33 -175.17 
-214.18 -4.33 -173.49 -214.19 -4.33 -171.81 -214.19 -4.33 -170.13 
-214.20 -4.33 -168.45 -214.21 -4.33 -166.78 -214.21 -4.33 -165.11 
-214.22 -4.33 -163.44 -214.22 -4.33 -161.77 -214.23 -4.33 -160.10 
-214.23 -4.33 -158.43 -214.24 -4.33 -156.76 -214.24 -4.33 -155.09 
-214.25 -4.33 -153.42 -214.25 -4.33 -151.75 -214.26 -4.33 -150.08 
-214.26 -4.33 -148.41 -214.27 -4.33 -146.74 -214.27 -4.33 -145.06 
-214.28 -4.33 -143.39 -214.28 -4.33 -141.71 -214.29 -4.33 -140.03 
-214.29 -4.33 -138.35 -214.30 -4.33 -136.66 -214.31 -4.33 -134.98 
[...]
POINT_DATA 1316
FIELD FieldData 1
MaximumInscribedSphereRadius 1 1316 double
1.47 1.47 1.47 1.47 1.48 1.48 1.48 1.48 1.48 
1.48 1.48 1.48 1.48 1.48 1.48 1.48 1.48 1.48 
1.48 1.49 1.49 1.49 1.49 1.49 1.49 1.50 1.50 
1.50 1.50 1.50 1.50 1.50 1.50 1.50 1.50 1.50 
1.50 1.50 1.50 1.50 1.50 1.50 1.50 1.50 1.50 
1.50 1.50 1.50 1.50 1.50 1.50 1.50 1.50 1.50 
1.50 1.50 1.50 1.50 1.50 1.50 1.50 1.50 1.50 
1.50 1.50 1.50 1.50 1.50 1.50 1.50 1.50 1.50 
1.50 1.50 1.50 1.50 1.50 1.50 1.50 1.50 1.50 
1.50 1.50 1.50 1.50 1.50 1.50 1.50 1.50 1.50 
1.50 1.50 1.50 1.50 1.50 1.50 1.50 1.50 1.50 
1.50 1.50 1.50 1.50 1.50 1.50 1.50 1.50 1.50 
1.50 1.50 1.50 1.50 1.50 1.50 1.50 1.50 1.50 
1.50 1.50 1.50 1.50 1.50 1.50 1.50 1.50 1.50 
1.50 1.50 1.50 1.50 1.50 1.50 1.50 1.50 1.50 
1.50 1.50 1.50 1.50 1.50 1.50 1.50 1.50 1.50 
1.50 1.50 1.50 1.50 1.50 1.50 1.50 1.50 1.50 
1.50 1.50 1.50 1.50 1.50 1.50 1.50 1.50 1.50 
1.50 1.50 1.50 1.50 1.50 1.50 1.50 1.50 1.50 
1.50 1.50 1.50 1.50 1.50 1.50 1.50 1.50 1.50 
1.50 1.50 1.50 1.50 1.50 1.50 1.50 1.50 1.50 
1.50 1.50 1.50 1.50 1.50 1.50 1.50 1.50 1.50 
1.50 1.50 1.50 1.50 1.50 1.50 1.50 1.50 1.50 
1.50 1.50 1.50 1.50 1.50 1.50 1.50 1.50 1.50 
1.50 1.50 1.50 1.50 1.50 1.50 1.50 1.50 1.50 
1.50 1.50 1.50 1.50 1.50 1.50 1.50 1.50 1.50 
1.50 1.50 1.50 1.50 1.50 1.50 1.50 1.50 1.50 
1.50 1.50 1.50 1.50 1.50 1.50 1.50 1.50 1.50 
1.50 1.50 1.50 1.50 1.50 1.50 1.50 1.50 1.50 
1.50 1.50 1.50 1.50 1.50 1.50 1.50 1.50 1.50 
1.50 1.50 1.50 1.50 1.50 1.50 1.50 1.50 1.49 
1.49 1.49 1.49 1.49 1.49 1.49 1.49 1.49 1.49 
1.49 1.49 1.49 1.49 1.49 1.48 1.48 1.48 1.48 
1.48 1.48 1.48 1.48 1.48 1.48 1.48 1.48 1.48 
1.48 1.48 1.48 1.48 1.48 1.48 1.48 1.48 1.48 
1.48 1.48 1.48 1.48 1.48 1.48 1.48 1.48 1.48 
1.48 1.48 1.48 1.48 1.48 1.49 1.49 1.49 1.49 
1.49 1.49 1.49 1.49 1.49 1.49 1.49 1.49 1.49 
1.49 1.49 1.49 1.49 1.49 1.49 1.49 1.49 1.49 
1.49 1.49 1.49 1.49 1.50 1.50 1.50 1.50 1.50 
1.50 1.50 1.50 1.50 1.50 1.50 1.50 1.50 1.50 
1.50 1.50 1.50 1.50 1.50 1.50 1.50 1.50 1.50 
1.50 1.50 1.50 1.50 1.50 1.50 1.50 1.50 1.50 
1.50 1.50 1.50 1.50 1.50 1.50 1.50 1.50 1.50 
1.50 1.50 1.50 1.50 1.50 1.50 1.50 1.50 1.50 
1.50 1.50 1.50 1.50 1.50 1.50 1.50 1.50 1.50 
1.50 1.50 1.50 1.50 1.50 1.50 1.50 1.50 1.50 
1.50 1.50 1.50 1.50 1.50 1.50 1.50 1.50 1.50 
1.50 1.50 1.50 1.50 1.50 1.50 1.50 1.50 1.50 
1.50 1.50 1.50 1.50 1.50 1.50 1.50 1.50 1.50 
1.50 1.50 1.50 1.50 1.50 1.50 1.50 1.50 1.50 
1.50 1.50 1.50 1.50 1.50 1.50 1.50 1.50 1.50 
1.50 1.50 1.50 1.50 1.50 1.50 1.50 1.50 1.50 
1.50 1.50 1.50 1.50 1.50 1.50 1.50 1.50 1.50 
1.50 1.50 1.50 1.50 1.50 1.50 1.50 1.50 1.50 
1.50 1.50 1.50 1.50 1.50 1.50 1.50 1.50 1.50 
1.50 1.50 1.50 1.50 1.50 1.50 1.50 1.50 1.50 
1.50 1.50 1.50 1.50 1.50 1.50 1.50 1.50 1.50 
1.50 1.50 1.50 1.50 1.50 1.50 1.50 1.50 1.50 
1.50 1.50 1.50 1.50 1.50 1.50 1.50 1.50 1.50 
1.50 1.50 1.50 1.50 1.50 1.50 1.50 1.50 1.50 
1.50 1.50 1.50 1.50 1.50 1.50 1.50 1.50 1.50 
1.50 1.50 1.50 1.50 1.50 1.50 1.50 1.50 1.50 
1.50 1.50 1.50 1.50 1.50 1.50 1.50 1.50 1.50 
1.50 1.50 1.50 1.50 1.50 1.50 1.50 1.50 1.50 
1.50 1.50 1.50 1.50 1.50 1.50 1.50 1.50 1.50 
1.50 1.50 1.50 1.50 1.50 1.50 1.50 1.50 1.49 
1.49 1.49 1.49 1.49 1.49 1.49 1.49 1.49 1.49 
1.49 1.49 1.49 1.49 1.49 1.49 1.49 1.49 1.49 
1.49 1.49 1.49 1.49 1.49 1.49 1.49 1.49 1.49 
1.49 1.49 1.49 1.49 1.49 1.49 1.49 1.49 1.49 
1.49 1.49 1.49 1.49 1.49 1.49 1.49 1.49 1.49 
1.49 1.49 1.49 1.49 1.49 1.49 1.49 1.49 1.49 
1.49 1.49 1.49 1.49 1.49 1.49 1.49 1.49 1.49 
1.49 1.49 1.49 1.49 1.49 1.49 1.49 1.49 1.49 
1.49 1.49 1.49 1.49 1.49 1.49 1.49 1.49 1.49 
1.49 1.49 1.49 1.49 1.49 1.49 1.49 1.49 1.49 
1.49 1.49 1.49 1.49 1.49 1.49 1.49 1.49 1.49 
1.49 1.49 1.50 1.50 1.50 1.50 1.50 1.50 1.50 
1.50 1.50 1.50 1.50 1.50 1.50 1.50 1.50 1.50 
1.50 1.50 1.50 1.50 1.50 1.50 1.50 1.50 1.50 
1.50 1.50 1.50 1.50 1.50 1.50 1.50 1.50 1.50 
1.50 1.50 1.50 1.50 1.50 1.50 1.50 1.50 1.50 
1.50 1.50 1.50 1.50 1.50 1.50 1.50 1.50 1.50 
1.50 1.50 1.50 1.50 1.50 1.50 1.50 1.50 1.50 
1.50 1.50 1.50 1.50 1.50 1.50 1.50 1.50 1.50 
1.50 1.50 1.50 1.50 1.50 1.50 1.50 1.50 1.50 
1.50 1.50 1.50 1.50 1.50 1.50 1.50 1.50 1.50 
1.50 1.50 1.50 1.50 1.50 1.50 1.50 1.50 1.50 
1.50 1.50 1.50 1.50 1.50 1.50 1.50 1.50 1.50 
1.50 1.50 1.50 1.50 1.50 1.50 1.50 1.50 1.50 
1.50 1.50 1.50 1.50 1.50 1.50 1.50 1.50 1.50 
1.50 1.50 1.50 1.50 1.50 1.50 1.50 1.50 1.50 
1.50 1.50 1.50 1.50 1.50 1.50 1.50 1.50 1.50 
1.50 1.50 1.50 1.50 1.50 1.50 1.50 1.50 1.50 
1.50 1.50 1.50 1.50 1.50 1.50 1.50 1.50 1.50 
1.50 1.50 1.50 1.50 1.50 1.50 1.50 1.50 1.50 
1.50 1.50 1.50 1.50 1.50 1.50 1.50 1.50 1.50 
1.50 1.50 1.50 1.50 1.50 1.50 1.50 1.50 1.50 
1.50 1.50 1.50 1.50 1.50 1.50 1.50 1.50 1.50 
1.50 1.50 1.50 1.50 1.50 1.50 1.50 1.50 1.50 
1.50 1.50 1.50 1.50 1.50 1.50 1.50 1.50 1.50 
1.50 1.50 1.50 1.50 1.50 1.50 1.50 1.50 1.50 
1.50 1.50 1.50 1.50 1.50 1.50 1.50 1.50 1.50 
1.50 1.50 1.50 1.50 1.50 1.50 1.50 1.50 1.50 
1.50 1.50 1.50 1.50 1.50 1.50 1.50 1.50 1.50 
1.50 1.49 1.49 1.49 1.49 1.49 1.49 1.49 1.49 
1.49 1.49 1.49 1.49 1.49 1.49 1.49 1.49 1.49 
1.49 1.49 1.49 1.49 1.49 1.49 1.49 1.49 1.49 
1.49 1.49 1.49 1.49 1.49 1.49 1.49 1.49 1.49 
1.49 1.49 1.49 1.49 1.49 1.49 1.49 1.49 1.49 
1.49 1.49 1.49 1.49 1.49 1.49 1.49 1.49 1.49 
1.49 1.49 1.49 1.49 1.49 1.49 1.49 1.49 1.49 
1.49 1.49 1.49 1.49 1.49 1.49 1.49 1.49 1.49 
1.49 1.49 1.49 1.49 1.49 1.49 1.50 1.50 1.50 
1.50 1.50 1.50 1.50 1.50 1.50 1.50 1.50 1.50 
1.50 1.50 1.50 1.50 1.50 1.50 1.50 1.50 1.50 
1.50 1.50 1.50 1.50 1.50 1.50 1.50 1.50 1.50 
1.50 1.50 1.50 1.50 1.50 1.50 1.50 1.50 1.50 
1.50 1.50 1.50 1.50 1.50 1.50 1.50 1.50 1.50 
1.50 1.50 1.50 1.50 1.50 1.50 1.50 1.50 1.50 
1.50 1.50 1.50 1.50 1.50 1.50 1.50 1.50 1.50 
1.50 1.50 1.50 1.50 1.50 1.50 1.50 1.50 1.50 
1.50 1.50 1.50 1.50 1.50 1.50 1.50 1.50 1.50 
1.50 1.50 1.50 1.50 1.50 1.50 1.50 1.50 1.50 
1.50 1.50 1.50 1.50 1.50 1.50 1.50 1.50 1.50 
1.50 1.50 1.50 1.50 1.50 1.50 1.50 1.50 1.50 
1.50 1.50 1.50 1.50 1.50 1.50 1.50 1.50 1.50 
1.50 1.50 1.50 1.50 1.50 1.50 1.50 1.50 1.50 
1.50 1.50 1.50 1.50 1.50 1.50 1.50 1.50 1.50 
1.50 1.50 1.50 1.50 1.50 1.50 1.50 1.50 1.50 
1.50 1.50 1.50 1.50 1.50 1.50 1.50 1.50 1.50 
1.50 1.50 1.50 1.50 1.50 1.50 1.50 1.50 1.50 
1.50 1.50 1.50 1.50 1.50 1.50 1.50 1.50 1.50 
1.50 1.50 1.50 1.50 1.50 1.50 1.50 1.50 1.50 
1.50 1.50 1.50 1.50 1.50 1.50 1.50 1.50 1.50 
1.50 1.50 1.50 1.50 1.50 1.50 1.50 1.50 1.50 
1.50 1.50 1.50 1.50 1.50 1.50 1.50 1.50 1.50 
1.50 1.50 1.50 1.50 1.50 1.50 1.50 1.50 1.50 
1.50 1.50 1.50 1.50 1.50 1.50 1.50 1.50 1.50 
1.50 1.50 1.50 1.50 1.50 1.50 1.50 1.50 1.50 
1.50 1.50 1.50 1.50 1.50 1.50 1.50 1.50 1.50 
1.50 1.50 1.50 1.50 1.49 1.49 1.49 1.48 1.48 
1.47 1.46 1.45 1.44 1.44 1.43 1.43 1.42 1.42 
1.42 1.43 1.43 1.44 1.45 1.46 1.47 1.47 1.48 
1.48 1.48 1.48 1.48 1.48 1.48 1.48 1.48 1.47 
1.46 1.47 
