# vtk DataFile Version 3.0
vtk output
ASCII
DATASET POLYDATA
POINTS 12 float
-227.11 205.86 377.83 -227.91 201.52 378.79 -229.17 196.02 380.13 
-230.90 189.51 381.83 -233.04 182.33 383.78 -235.38 174.97 385.79 
-237.69 167.96 387.62 -239.74 161.75 389.11 -241.39 156.61 390.16 
-242.59 152.62 390.80 -226.45 214.66 376.30 -244.41 144.59 391.20 

LINES 1 13
12 11 9 8 7 6 5 4 3 2 1 0 10 
POINT_DATA 12
FIELD FieldData 1
MaximumInscribedSphereRadius 1 12 double
21.99 21.97 22.34 23.21 24.66 26.64 29.03 31.64 34.24 
36.60 22.25 38.58 
