# vtk DataFile Version 3.0
vtk output
ASCII
DATASET POLYDATA
POINTS 178 float
4559.82 174.85 1011.47 4562.81 171.97 1012.47 4566.12 168.73 1013.57 
4569.63 165.18 1014.71 4573.26 161.37 1015.87 4576.93 157.32 1017.02 
4580.61 153.02 1018.12 4584.26 148.47 1019.16 4587.86 143.65 1020.11 
4591.38 138.55 1020.97 4594.80 133.16 1021.72 4598.09 127.49 1022.36 
4601.24 121.56 1022.87 4604.23 115.36 1023.28 4607.07 108.94 1023.58 
4609.74 102.32 1023.81 4612.26 95.54 1023.98 4614.64 88.63 1024.11 
4616.88 81.62 1024.22 4618.99 74.56 1024.33 4620.99 67.46 1024.46 
4622.88 60.34 1024.60 4624.67 53.23 1024.76 4626.37 46.12 1024.94 
4627.98 39.04 1025.12 4629.51 31.97 1025.29 4630.97 24.94 1025.44 
4632.37 17.93 1025.56 4633.73 10.95 1025.63 4635.06 4.00 1025.64 
4636.37 -2.90 1025.59 4637.69 -9.76 1025.48 4639.03 -16.56 1025.30 
4640.42 -23.31 1025.07 4641.86 -29.99 1024.80 4643.39 -36.59 1024.50 
4645.00 -43.12 1024.20 4646.73 -49.57 1023.89 4648.58 -55.94 1023.62 
4650.56 -62.22 1023.40 4652.69 -68.42 1023.24 4654.98 -74.53 1023.17 
4657.41 -80.56 1023.19 4660.01 -86.53 1023.32 4662.75 -92.42 1023.56 
4665.64 -98.25 1023.91 4668.65 -104.02 1024.37 4671.77 -109.76 1024.92 
4674.98 -115.46 1025.55 4678.26 -121.13 1026.24 4681.60 -126.79 1026.96 
4684.97 -132.44 1027.70 4688.36 -138.09 1028.41 4691.76 -143.74 1029.09 
4695.16 -149.39 1029.68 4698.56 -155.04 1030.18 4701.94 -160.68 1030.54 
4705.32 -166.31 1030.73 4708.68 -171.91 1030.73 4712.04 -177.47 1030.51 
4715.38 -182.98 1030.04 4718.72 -188.43 1029.29 4722.04 -193.78 1028.24 
4725.35 -199.04 1026.88 4728.63 -204.18 1025.18 4731.88 -209.19 1023.15 
4735.10 -214.05 1020.76 4738.26 -218.75 1018.02 4741.34 -223.26 1014.92 
4744.34 -227.58 1011.46 4747.23 -231.69 1007.65 4749.98 -235.57 1003.49 
4752.58 -239.20 998.99 4755.00 -242.57 994.17 4757.23 -245.67 989.04 
4759.25 -248.48 983.64 4761.05 -250.98 977.98 4762.63 -253.19 972.12 
4763.98 -255.11 966.08 4765.14 -256.75 959.92 4766.10 -258.12 953.67 
4766.90 -259.27 947.37 4767.56 -260.21 941.06 4768.12 -260.99 934.75 
4768.60 -261.65 928.46 4769.05 -262.25 922.20 4769.49 -262.82 915.96 
4769.95 -263.43 909.74 4770.46 -264.13 903.53 4771.04 -264.97 897.33 
4771.70 -266.00 891.13 4772.47 -267.27 884.94 4773.36 -268.83 878.79 
4774.39 -270.71 872.69 4775.57 -272.93 866.67 4776.92 -275.50 860.78 
4778.44 -278.43 855.04 4780.14 -281.70 849.51 4782.05 -285.31 844.21 
4784.15 -289.24 839.19 4786.47 -293.45 834.48 4788.99 -297.93 830.11 
4791.71 -302.65 826.12 4794.62 -307.59 822.51 4797.70 -312.71 819.31 
4800.93 -318.00 816.52 4804.30 -323.44 814.12 4807.77 -329.01 812.11 
4811.31 -334.69 810.47 4814.92 -340.46 809.17 4818.56 -346.31 808.17 
4822.21 -352.22 807.45 4825.85 -358.18 806.96 4829.48 -364.18 806.67 
4833.09 -370.20 806.55 4836.66 -376.23 806.58 4840.20 -382.25 806.71 
4843.71 -388.26 806.93 4847.19 -394.23 807.20 4850.66 -400.15 807.52 
4854.12 -406.01 807.86 4857.60 -411.79 808.20 4861.10 -417.48 808.53 
4864.65 -423.07 808.84 4868.25 -428.55 809.11 4871.92 -433.91 809.35 
4875.67 -439.14 809.54 4879.51 -444.25 809.70 4883.45 -449.22 809.81 
4887.49 -454.06 809.90 4891.62 -458.78 809.95 4895.85 -463.38 809.98 
4900.17 -467.87 810.00 4904.56 -472.25 810.00 4909.02 -476.55 810.00 
4913.53 -480.76 810.00 4918.08 -484.91 809.99 4922.66 -489.00 809.99 
4927.26 -493.05 809.98 4931.88 -497.05 809.98 4936.49 -501.01 809.98 
4941.11 -504.95 809.98 4945.73 -508.86 809.98 4950.34 -512.76 809.98 
4954.95 -516.63 809.98 4959.55 -520.50 809.97 4964.15 -524.36 809.97 
4968.74 -528.21 809.95 4973.33 -532.06 809.94 4977.92 -535.91 809.92 
4982.50 -539.76 809.90 4987.08 -543.61 809.87 4991.66 -547.45 809.85 
4996.24 -551.30 809.84 5000.82 -555.13 809.83 5005.41 -558.96 809.85 
5010.00 -562.77 809.89 5014.60 -566.56 809.97 5019.21 -570.33 810.09 
5023.83 -574.07 810.28 5028.46 -577.78 810.53 5033.10 -581.45 810.86 
5037.76 -585.09 811.27 5042.42 -588.67 811.77 5047.09 -592.22 812.37 
5051.77 -595.71 813.06 5056.44 -599.14 813.84 5061.09 -602.52 814.70 
5065.71 -605.83 815.62 5070.29 -609.07 816.61 5074.81 -612.25 817.65 
5079.25 -615.34 818.71 5083.58 -618.33 819.78 5087.74 -621.19 820.84 
5091.63 -623.85 821.84 5095.13 -626.25 822.76 4551.15 182.88 1008.54 
5105.19 -633.10 825.44 
LINES 1 179
178 177 175 174 173 172 171 170 169 168 167 166 165 164 163 162 161 160 159 158 157 156 155 154 153 152 151 150 149 148 147 146 145 144 143 142 141 140 139 138 137 136 135 134 133 132 131 130 129 128 127 126 125 124 123 122 121 120 119 118 117 116 115 114 113 112 111 110 109 108 107 106 105 104 103 102 101 100 99 98 97 96 95 94 93 92 91 90 89 88 87 86 85 84 83 82 81 80 79 78 77 76 75 74 73 72 71 70 69 68 67 66 65 64 63 62 61 60 59 58 57 56 55 54 53 52 51 50 49 48 47 46 45 44 43 42 41 40 39 38 37 36 35 34 33 32 31 30 29 28 27 26 25 24 23 22 21 20 19 18 17 16 15 14 13 12 11 10 9 8 7 6 5 4 3 2 1 0 176 
POINT_DATA 178
FIELD FieldData 1
MaximumInscribedSphereRadius 1 178 double
27.75 27.59 27.39 27.15 26.90 26.63 26.34 26.06 25.79 
25.52 25.26 25.01 24.78 24.56 24.35 24.16 23.98 23.81 
23.65 23.51 23.39 23.28 23.19 23.12 23.08 23.05 23.05 
23.08 23.13 23.19 23.28 23.39 23.50 23.62 23.75 23.87 
23.98 24.08 24.16 24.24 24.29 24.33 24.36 24.37 24.38 
24.38 24.38 24.38 24.38 24.39 24.40 24.43 24.47 24.51 
24.55 24.59 24.63 24.66 24.68 24.68 24.67 24.65 24.62 
24.60 24.58 24.57 24.58 24.62 24.68 24.77 24.87 24.99 
25.12 25.24 25.36 25.47 25.57 25.64 25.71 25.75 25.79 
25.80 25.81 25.80 25.78 25.75 25.70 25.64 25.58 25.51 
25.43 25.35 25.27 25.19 25.11 25.03 24.95 24.88 24.82 
24.77 24.74 24.73 24.73 24.76 24.80 24.85 24.91 24.96 
25.01 25.04 25.06 25.07 25.08 25.07 25.07 25.06 25.07 
25.09 25.12 25.17 25.22 25.28 25.35 25.43 25.50 25.56 
25.62 25.67 25.70 25.73 25.76 25.77 25.79 25.81 25.82 
25.85 25.88 25.91 25.95 25.99 26.02 26.06 26.09 26.12 
26.13 26.15 26.15 26.15 26.15 26.14 26.13 26.13 26.12 
26.11 26.11 26.10 26.09 26.09 26.09 26.09 26.10 26.12 
26.16 26.21 26.29 26.40 26.53 26.67 26.84 27.02 27.20 
27.38 27.55 27.70 27.83 27.94 27.88 28.02 
