# vtk DataFile Version 3.0
vtk output
ASCII
DATASET POLYDATA
POINTS 28 float
405.10 -288.99 46.57 403.87 -289.56 48.71 402.41 -290.15 51.13 
400.72 -290.69 53.75 398.84 -291.14 56.45 396.75 -291.45 59.16 
394.45 -291.60 61.81 391.88 -291.58 64.38 388.98 -291.41 66.85 
385.67 -291.13 69.23 381.91 -290.79 71.55 377.74 -290.42 73.85 
373.32 -290.06 76.19 368.89 -289.71 78.63 364.70 -289.35 81.25 
360.98 -288.95 84.07 357.82 -288.48 87.13 355.23 -287.92 90.40 
353.12 -287.29 93.86 351.39 -286.59 97.48 349.92 -285.85 101.19 
348.64 -285.10 104.95 347.51 -284.35 108.65 346.51 -283.61 112.18 
345.64 -282.91 115.41 344.91 -282.27 118.23 408.04 -287.32 41.06 
343.21 -280.54 125.39 
LINES 1 29
28 27 25 24 23 22 21 20 19 18 17 16 15 14 13 12 11 10 9 8 7 6 5 4 3 2 1 0 26 
POINT_DATA 28
FIELD FieldData 1
MaximumInscribedSphereRadius 1 28 double
32.80 33.07 33.47 34.03 34.76 35.68 36.79 38.08 39.55 
41.19 43.01 45.00 47.13 49.35 51.60 53.81 55.92 57.90 
59.73 61.38 62.86 64.15 65.29 66.27 67.10 67.79 32.63 
68.34 
