# vtk DataFile Version 3.0
vtk output
ASCII
DATASET POLYDATA
POINTS 12 float
1815.63 -287.77 1062.03 1810.63 -286.17 1065.05 1804.32 -283.87 1068.90 
1796.93 -280.84 1073.55 1788.97 -277.23 1078.86 1781.12 -273.33 1084.59 
1774.05 -269.54 1090.41 1768.24 -266.24 1096.00 1763.88 -263.67 1101.04 
1760.88 -261.90 1105.33 1825.59 -290.14 1055.72 1756.64 -260.15 1115.59 

LINES 1 13
12 11 9 8 7 6 5 4 3 2 1 0 10 
POINT_DATA 12
FIELD FieldData 1
MaximumInscribedSphereRadius 1 12 double
37.32 38.10 39.41 41.33 43.80 46.62 49.53 52.23 54.51 
56.27 36.93 57.51 
