# vtk DataFile Version 3.0
vtk output
ASCII
DATASET POLYDATA
POINTS 12 float
3217.61 -443.89 -31.80 3221.76 -443.91 -31.81 3227.03 -443.94 -31.84 
3233.30 -443.97 -31.88 3240.24 -443.98 -31.95 3247.35 -443.96 -32.04 
3254.04 -443.89 -32.14 3259.80 -443.78 -32.22 3264.34 -443.63 -32.25 
3267.58 -443.47 -32.22 3209.12 -443.86 -31.80 3271.93 -443.05 -31.50 

LINES 1 13
12 11 9 8 7 6 5 4 3 2 1 0 10 
POINT_DATA 12
FIELD FieldData 1
MaximumInscribedSphereRadius 1 12 double
34.16 34.44 34.73 34.99 35.16 35.21 35.15 35.00 34.79 
34.60 33.93 34.44 
