# vtk DataFile Version 3.0
vtk output
ASCII
DATASET POLYDATA
POINTS 1758 float
-305.26 -4.54 175.53 -305.26 -4.54 174.61 -305.26 -4.54 173.60 
-305.26 -4.54 172.51 -305.26 -4.54 171.38 -305.26 -4.54 170.21 
-305.26 -4.54 169.03 -305.26 -4.54 167.82 -305.26 -4.54 166.61 
-305.26 -4.54 165.38 -305.26 -4.54 164.15 -305.26 -4.54 162.92 
-305.26 -4.54 161.68 -305.26 -4.54 160.44 -305.26 -4.54 159.21 
-305.26 -4.54 157.97 -305.26 -4.54 156.73 -305.26 -4.54 155.49 
-305.26 -4.54 154.25 -305.25 -4.54 153.00 -305.25 -4.54 151.76 
-305.24 -4.54 150.51 -305.23 -4.54 149.25 -305.21 -4.54 147.99 
-305.18 -4.54 146.73 -305.13 -4.54 145.47 -305.06 -4.54 144.21 
-304.96 -4.54 142.96 -304.81 -4.54 141.73 -304.62 -4.54 140.52 
-304.36 -4.54 139.34 -304.03 -4.54 138.20 -303.61 -4.54 137.12 
-303.10 -4.54 136.11 -302.49 -4.54 135.17 -301.78 -4.54 134.32 
-300.97 -4.54 133.57 -300.06 -4.54 132.91 -299.07 -4.54 132.35 
-298.01 -4.54 131.88 -296.88 -4.54 131.50 -295.71 -4.54 131.20 
-294.49 -4.54 130.96 -293.26 -4.54 130.79 -292.01 -4.54 130.66 
-290.75 -4.54 130.56 -289.48 -4.54 130.50 -288.23 -4.54 130.46 
-286.97 -4.54 130.43 -285.73 -4.54 130.41 -284.49 -4.54 130.40 
-283.26 -4.54 130.39 -282.03 -4.54 130.39 -280.81 -4.54 130.39 
-279.60 -4.54 130.39 -278.39 -4.54 130.39 -277.19 -4.54 130.39 
-275.99 -4.54 130.39 -274.79 -4.54 130.39 -273.59 -4.54 130.39 
-272.40 -4.54 130.39 -271.21 -4.54 130.39 -270.02 -4.54 130.39 
-268.82 -4.54 130.39 -267.63 -4.54 130.39 -266.45 -4.54 130.39 
-265.26 -4.54 130.39 -264.07 -4.54 130.39 -262.88 -4.54 130.39 
-261.70 -4.54 130.39 -260.52 -4.54 130.39 -259.33 -4.54 130.39 
-258.15 -4.54 130.39 -256.98 -4.54 130.39 -255.80 -4.54 130.39 
-254.62 -4.54 130.39 -253.45 -4.54 130.39 -252.28 -4.54 130.39 
-251.11 -4.54 130.39 -249.94 -4.54 130.39 -248.77 -4.54 130.39 
-247.60 -4.54 130.39 -246.43 -4.54 130.39 -245.26 -4.54 130.39 
-244.09 -4.54 130.39 -242.92 -4.54 130.39 -241.75 -4.54 130.39 
-240.58 -4.54 130.39 -239.40 -4.54 130.39 -238.23 -4.54 130.39 
-237.05 -4.54 130.39 -235.88 -4.54 130.39 -234.70 -4.54 130.39 
-233.52 -4.54 130.39 -232.34 -4.54 130.39 -231.15 -4.54 130.39 
-229.97 -4.54 130.39 -228.79 -4.54 130.39 -227.60 -4.54 130.39 
-226.42 -4.54 130.39 -225.24 -4.54 130.39 -224.06 -4.54 130.39 
-222.88 -4.54 130.39 -221.70 -4.54 130.39 -220.52 -4.54 130.39 
-219.35 -4.54 130.39 -218.18 -4.54 130.39 -217.01 -4.54 130.39 
-215.85 -4.54 130.39 -214.69 -4.54 130.39 -213.53 -4.54 130.39 
-212.38 -4.54 130.39 -211.23 -4.54 130.39 -210.09 -4.54 130.39 
-208.94 -4.54 130.39 -207.80 -4.54 130.39 -206.67 -4.54 130.39 
-205.53 -4.54 130.39 -204.40 -4.54 130.39 -203.27 -4.54 130.39 
-202.14 -4.54 130.39 -201.01 -4.54 130.39 -199.88 -4.54 130.39 
-198.75 -4.54 130.39 -197.62 -4.54 130.39 -196.50 -4.54 130.39 
-195.37 -4.54 130.39 -194.25 -4.54 130.39 -193.13 -4.54 130.39 
-192.01 -4.54 130.39 -190.89 -4.54 130.39 -189.77 -4.54 130.39 
-188.66 -4.54 130.39 -187.54 -4.54 130.39 -186.43 -4.54 130.39 
-185.32 -4.54 130.39 -184.22 -4.54 130.39 -183.11 -4.54 130.39 
-182.00 -4.54 130.39 -180.90 -4.54 130.39 -179.79 -4.54 130.39 
-178.68 -4.54 130.39 -177.58 -4.54 130.39 -176.47 -4.54 130.39 
-175.36 -4.54 130.39 -174.25 -4.54 130.39 -173.14 -4.54 130.39 
-172.02 -4.54 130.39 -170.91 -4.54 130.39 -169.79 -4.54 130.39 
-168.67 -4.54 130.39 -167.55 -4.54 130.39 -166.42 -4.54 130.39 
-165.29 -4.54 130.39 -164.16 -4.54 130.39 -163.03 -4.54 130.39 
-161.90 -4.54 130.39 -160.76 -4.54 130.39 -159.63 -4.54 130.39 
-158.49 -4.54 130.39 -157.35 -4.54 130.39 -156.21 -4.54 130.39 
-155.07 -4.54 130.39 -153.93 -4.54 130.39 -152.79 -4.54 130.39 
-151.65 -4.54 130.39 -150.51 -4.54 130.39 -149.37 -4.54 130.39 
-148.23 -4.54 130.39 -147.09 -4.54 130.39 -145.95 -4.54 130.39 
-144.82 -4.54 130.39 -143.68 -4.54 130.39 -142.55 -4.54 130.39 
-141.41 -4.54 130.39 -140.28 -4.54 130.39 -139.14 -4.54 130.39 
-138.01 -4.54 130.39 -136.87 -4.54 130.39 -135.74 -4.54 130.39 
-134.61 -4.54 130.39 -133.47 -4.54 130.39 -132.34 -4.54 130.39 
-131.20 -4.54 130.39 -130.07 -4.54 130.39 -128.93 -4.54 130.39 
-127.79 -4.54 130.39 -126.65 -4.54 130.39 -125.51 -4.54 130.39 
-124.37 -4.54 130.39 -123.22 -4.54 130.39 -122.07 -4.54 130.39 
-120.92 -4.54 130.39 -119.76 -4.54 130.39 -118.59 -4.54 130.39 
-117.42 -4.54 130.39 -116.25 -4.54 130.39 -115.07 -4.54 130.39 
-113.89 -4.54 130.39 -112.70 -4.54 130.39 -111.50 -4.54 130.39 
-110.30 -4.54 130.39 -109.10 -4.54 130.39 -107.89 -4.54 130.39 
-106.68 -4.54 130.39 -105.47 -4.54 130.39 -104.25 -4.54 130.39 
-103.04 -4.54 130.39 -101.82 -4.54 130.39 -100.60 -4.54 130.39 
-99.39 -4.54 130.39 -98.17 -4.54 130.39 -96.96 -4.54 130.39 
-95.74 -4.54 130.39 -94.53 -4.54 130.39 -93.32 -4.54 130.39 
-92.11 -4.54 130.39 -90.91 -4.54 130.39 -89.70 -4.54 130.39 
-88.49 -4.54 130.39 -87.29 -4.54 130.39 -86.08 -4.54 130.39 
-84.87 -4.54 130.39 -83.66 -4.54 130.39 -82.45 -4.54 130.39 
-81.24 -4.54 130.39 -80.02 -4.54 130.39 -78.80 -4.54 130.39 
-77.58 -4.54 130.39 -76.36 -4.54 130.39 -75.13 -4.54 130.39 
-73.91 -4.54 130.39 -72.68 -4.54 130.39 -71.45 -4.54 130.39 
-70.21 -4.54 130.39 -68.98 -4.54 130.39 -67.74 -4.54 130.39 
-66.50 -4.54 130.39 -65.26 -4.54 130.38 -64.02 -4.54 130.38 
-62.77 -4.54 130.38 -61.53 -4.54 130.38 -60.28 -4.54 130.37 
-59.03 -4.54 130.36 -57.78 -4.54 130.35 -56.53 -4.54 130.33 
-55.28 -4.54 130.30 -54.03 -4.54 130.27 -52.77 -4.54 130.22 
-51.52 -4.54 130.16 -50.27 -4.54 130.08 -49.02 -4.54 129.98 
-47.77 -4.54 129.86 -46.52 -4.54 129.71 -45.28 -4.54 129.53 
-44.04 -4.54 129.32 -42.81 -4.54 129.08 -41.58 -4.54 128.81 
-40.37 -4.54 128.49 -39.16 -4.54 128.14 -37.96 -4.54 127.75 
-36.78 -4.54 127.32 -35.62 -4.54 126.86 -34.46 -4.54 126.35 
-33.33 -4.54 125.81 -32.21 -4.54 125.23 -31.12 -4.54 124.61 
-30.04 -4.54 123.96 -28.99 -4.54 123.27 -27.97 -4.54 122.54 
-26.97 -4.54 121.79 -25.99 -4.54 121.00 -25.05 -4.54 120.18 
-24.13 -4.54 119.33 -23.25 -4.54 118.45 -22.40 -4.54 117.54 
-21.58 -4.54 116.61 -20.79 -4.54 115.66 -20.04 -4.54 114.68 
-19.32 -4.54 113.68 -18.64 -4.54 112.66 -17.99 -4.54 111.62 
-17.38 -4.54 110.56 -16.81 -4.54 109.49 -16.27 -4.54 108.40 
-15.77 -4.54 107.29 -15.31 -4.54 106.17 -14.89 -4.54 105.04 
-14.50 -4.54 103.89 -14.16 -4.54 102.74 -13.85 -4.54 101.57 
-13.58 -4.54 100.39 -13.35 -4.54 99.20 -13.16 -4.54 98.00 
-13.00 -4.54 96.79 -12.89 -4.54 95.57 -12.82 -4.54 94.35 
-12.79 -4.54 93.12 -12.80 -4.54 91.88 -12.85 -4.54 90.64 
-12.94 -4.54 89.40 -13.08 -4.54 88.15 -13.25 -4.54 86.91 
-13.47 -4.54 85.67 -13.74 -4.54 84.43 -14.04 -4.54 83.20 
-14.38 -4.54 81.98 -14.77 -4.54 80.78 -15.19 -4.54 79.59 
-15.66 -4.54 78.41 -16.16 -4.54 77.25 -16.70 -4.54 76.12 
-17.28 -4.54 75.00 -17.89 -4.54 73.91 -18.53 -4.54 72.84 
-19.21 -4.54 71.80 -19.92 -4.54 70.79 -20.66 -4.54 69.80 
-21.43 -4.54 68.84 -22.23 -4.54 67.91 -23.06 -4.54 67.02 
-23.91 -4.54 66.15 -24.79 -4.54 65.31 -25.69 -4.54 64.51 
-26.62 -4.54 63.73 -27.56 -4.54 62.99 -28.53 -4.54 62.29 
-29.52 -4.54 61.61 -30.53 -4.54 60.97 -31.55 -4.54 60.37 
-32.59 -4.54 59.80 -33.64 -4.54 59.26 -34.71 -4.54 58.76 
-35.78 -4.54 58.29 -36.87 -4.54 57.86 -37.97 -4.54 57.47 
-39.08 -4.54 57.10 -40.19 -4.54 56.78 -41.31 -4.54 56.48 
-42.44 -4.54 56.22 -43.57 -4.54 55.99 -44.71 -4.54 55.79 
-45.86 -4.54 55.61 -47.00 -4.54 55.46 -48.16 -4.54 55.34 
-49.32 -4.54 55.23 -50.48 -4.54 55.15 -51.65 -4.54 55.07 
-52.83 -4.54 55.02 -54.01 -4.54 54.97 -55.20 -4.54 54.93 
-56.39 -4.54 54.90 -57.59 -4.54 54.88 -58.79 -4.54 54.85 
-60.00 -4.54 54.84 -61.21 -4.54 54.82 -62.42 -4.54 54.81 
-63.64 -4.54 54.79 -64.86 -4.54 54.78 -66.08 -4.54 54.77 
-67.31 -4.54 54.76 -68.53 -4.54 54.75 -69.76 -4.54 54.74 
-70.98 -4.54 54.73 -72.21 -4.54 54.71 -73.43 -4.54 54.70 
-74.65 -4.54 54.69 -75.88 -4.54 54.68 -77.10 -4.54 54.67 
-78.33 -4.54 54.66 -79.55 -4.54 54.65 -80.77 -4.54 54.64 
-82.00 -4.54 54.63 -83.23 -4.54 54.62 -84.46 -4.54 54.60 
-85.69 -4.54 54.59 -86.92 -4.54 54.58 -88.15 -4.54 54.57 
-89.38 -4.54 54.56 -90.62 -4.54 54.55 -91.85 -4.54 54.54 
-93.08 -4.54 54.53 -94.32 -4.54 54.52 -95.55 -4.54 54.50 
-96.78 -4.54 54.49 -98.01 -4.54 54.48 -99.24 -4.54 54.47 
-100.47 -4.54 54.46 -101.69 -4.54 54.45 -102.92 -4.54 54.44 
-104.15 -4.54 54.43 -105.37 -4.54 54.42 -106.59 -4.54 54.41 
-107.82 -4.54 54.39 -109.04 -4.54 54.38 -110.27 -4.54 54.37 
-111.49 -4.54 54.36 -112.72 -4.54 54.35 -113.94 -4.54 54.34 
-115.17 -4.54 54.33 -116.40 -4.54 54.32 -117.63 -4.54 54.31 
-118.87 -4.54 54.30 -120.10 -4.54 54.28 -121.33 -4.54 54.27 
-122.57 -4.54 54.26 -123.80 -4.54 54.25 -125.04 -4.54 54.24 
-126.27 -4.54 54.23 -127.51 -4.54 54.22 -128.74 -4.54 54.21 
-129.97 -4.54 54.20 -131.20 -4.54 54.18 -132.42 -4.54 54.17 
-133.64 -4.54 54.16 -134.86 -4.54 54.15 -136.08 -4.54 54.14 
-137.29 -4.54 54.13 -138.50 -4.54 54.12 -139.70 -4.54 54.11 
-140.90 -4.54 54.10 -142.10 -4.54 54.09 -143.29 -4.54 54.08 
-144.48 -4.54 54.07 -145.67 -4.54 54.05 -146.86 -4.54 54.04 
-148.04 -4.54 54.03 -149.22 -4.54 54.02 -150.41 -4.54 54.01 
-151.59 -4.54 54.00 -152.76 -4.54 53.99 -153.94 -4.54 53.98 
-155.12 -4.54 53.97 -156.30 -4.54 53.96 -157.48 -4.54 53.95 
-158.66 -4.54 53.94 -159.84 -4.54 53.93 -161.02 -4.54 53.92 
-162.21 -4.54 53.91 -163.40 -4.54 53.90 -164.59 -4.54 53.88 
-165.78 -4.54 53.87 -166.98 -4.54 53.86 -168.18 -4.54 53.85 
-169.39 -4.54 53.84 -170.61 -4.54 53.83 -171.82 -4.54 53.82 
-173.05 -4.54 53.81 -174.28 -4.54 53.80 -175.51 -4.54 53.79 
-176.74 -4.54 53.78 -177.98 -4.54 53.76 -179.22 -4.54 53.75 
-180.46 -4.54 53.74 -181.71 -4.54 53.73 -182.95 -4.54 53.72 
-184.19 -4.54 53.71 -185.43 -4.54 53.70 -186.67 -4.54 53.69 
-187.90 -4.54 53.68 -189.14 -4.54 53.66 -190.36 -4.54 53.65 
-191.59 -4.54 53.64 -192.80 -4.54 53.63 -194.02 -4.54 53.62 
-195.23 -4.54 53.61 -196.43 -4.54 53.60 -197.63 -4.54 53.59 
-198.82 -4.54 53.58 -200.01 -4.54 53.57 -201.20 -4.54 53.56 
-202.38 -4.54 53.55 -203.56 -4.54 53.53 -204.74 -4.54 53.52 
-205.91 -4.54 53.51 -207.08 -4.54 53.50 -208.25 -4.54 53.49 
-209.41 -4.54 53.48 -210.58 -4.54 53.47 -211.74 -4.54 53.46 
[...]
POINT_DATA 1758
FIELD FieldData 1
MaximumInscribedSphereRadius 1 1758 double
1.50 1.50 1.50 1.50 1.50 1.50 1.50 1.50 1.50 
1.50 1.50 1.50 1.50 1.50 1.50 1.50 1.50 1.50 
1.50 1.50 1.50 1.50 1.50 1.50 1.49 1.49 1.49 
1.49 1.48 1.48 1.48 1.47 1.47 1.47 1.47 1.46 
1.47 1.47 1.47 1.47 1.48 1.48 1.48 1.49 1.49 
1.49 1.49 1.50 1.50 1.50 1.50 1.50 1.50 1.50 
1.50 1.50 1.50 1.50 1.50 1.50 1.50 1.50 1.50 
1.50 1.50 1.50 1.50 1.50 1.50 1.50 1.50 1.50 
1.50 1.50 1.50 1.50 1.50 1.50 1.50 1.50 1.50 
1.50 1.50 1.50 1.50 1.50 1.50 1.50 1.50 1.50 
1.50 1.50 1.50 1.50 1.50 1.50 1.50 1.50 1.50 
1.50 1.50 1.50 1.50 1.50 1.50 1.50 1.50 1.50 
1.50 1.50 1.50 1.50 1.50 1.50 1.50 1.50 1.50 
1.50 1.50 1.50 1.50 1.50 1.50 1.50 1.50 1.50 
1.50 1.50 1.50 1.50 1.50 1.50 1.50 1.50 1.50 
1.50 1.50 1.50 1.50 1.50 1.50 1.50 1.50 1.50 
1.50 1.50 1.50 1.50 1.50 1.50 1.50 1.50 1.50 
1.50 1.50 1.50 1.50 1.50 1.50 1.50 1.50 1.50 
1.50 1.50 1.50 1.50 1.50 1.50 1.50 1.50 1.50 
1.50 1.50 1.50 1.50 1.50 1.50 1.50 1.50 1.50 
1.50 1.50 1.50 1.50 1.50 1.50 1.50 1.50 1.50 
1.50 1.50 1.50 1.50 1.50 1.50 1.50 1.50 1.50 
1.50 1.50 1.50 1.50 1.50 1.50 1.50 1.50 1.50 
1.50 1.50 1.50 1.50 1.50 1.50 1.50 1.50 1.50 
1.50 1.50 1.50 1.50 1.50 1.50 1.50 1.50 1.50 
1.50 1.50 1.50 1.50 1.50 1.50 1.50 1.50 1.50 
1.50 1.50 1.50 1.50 1.50 1.50 1.50 1.50 1.50 
1.50 1.50 1.50 1.50 1.50 1.50 1.49 1.49 1.49 
1.49 1.49 1.49 1.49 1.49 1.49 1.49 1.49 1.49 
1.49 1.49 1.49 1.49 1.49 1.49 1.49 1.49 1.49 
1.49 1.49 1.49 1.49 1.49 1.49 1.49 1.49 1.49 
1.49 1.49 1.49 1.49 1.49 1.49 1.49 1.49 1.49 
1.49 1.49 1.49 1.49 1.49 1.49 1.49 1.49 1.49 
1.49 1.49 1.49 1.49 1.49 1.49 1.49 1.49 1.49 
1.49 1.49 1.49 1.49 1.49 1.49 1.49 1.49 1.49 
1.49 1.49 1.49 1.49 1.49 1.49 1.49 1.49 1.49 
1.49 1.49 1.49 1.49 1.49 1.49 1.49 1.49 1.49 
1.49 1.49 1.49 1.49 1.49 1.49 1.49 1.49 1.49 
1.49 1.49 1.49 1.49 1.49 1.50 1.50 1.50 1.50 
1.50 1.50 1.50 1.50 1.50 1.50 1.50 1.50 1.50 
1.50 1.50 1.50 1.50 1.50 1.50 1.50 1.50 1.50 
1.50 1.50 1.50 1.50 1.50 1.50 1.50 1.50 1.50 
1.50 1.50 1.50 1.50 1.50 1.50 1.50 1.50 1.50 
1.50 1.50 1.50 1.50 1.50 1.50 1.50 1.50 1.50 
1.50 1.50 1.50 1.50 1.50 1.50 1.50 1.50 1.50 
1.50 1.50 1.50 1.50 1.50 1.50 1.50 1.50 1.50 
1.50 1.50 1.50 1.50 1.50 1.50 1.50 1.50 1.50 
1.50 1.50 1.50 1.50 1.50 1.50 1.50 1.50 1.50 
1.50 1.50 1.50 1.50 1.50 1.50 1.50 1.50 1.50 
1.50 1.50 1.50 1.50 1.50 1.50 1.50 1.50 1.50 
1.50 1.50 1.50 1.50 1.50 1.50 1.50 1.50 1.50 
1.50 1.50 1.50 1.50 1.50 1.50 1.50 1.50 1.50 
1.50 1.50 1.50 1.50 1.50 1.50 1.50 1.50 1.50 
1.50 1.50 1.50 1.50 1.50 1.50 1.50 1.50 1.50 
1.50 1.50 1.50 1.50 1.50 1.50 1.50 1.50 1.50 
1.50 1.50 1.50 1.50 1.50 1.50 1.50 1.50 1.50 
1.50 1.50 1.50 1.50 1.50 1.50 1.50 1.50 1.50 
1.50 1.50 1.50 1.50 1.50 1.50 1.50 1.49 1.49 
1.49 1.49 1.49 1.49 1.49 1.49 1.49 1.49 1.49 
1.49 1.49 1.49 1.49 1.49 1.49 1.49 1.49 1.49 
1.49 1.49 1.49 1.49 1.49 1.49 1.49 1.49 1.49 
1.49 1.49 1.49 1.49 1.49 1.49 1.49 1.49 1.49 
1.49 1.49 1.49 1.49 1.49 1.49 1.49 1.49 1.49 
1.49 1.49 1.49 1.49 1.49 1.49 1.49 1.49 1.49 
1.49 1.49 1.49 1.49 1.49 1.49 1.49 1.49 1.49 
1.49 1.49 1.49 1.49 1.49 1.49 1.49 1.49 1.49 
1.49 1.49 1.49 1.49 1.49 1.49 1.49 1.49 1.49 
1.49 1.49 1.49 1.49 1.49 1.49 1.49 1.49 1.49 
1.49 1.49 1.49 1.49 1.49 1.49 1.49 1.49 1.49 
1.49 1.49 1.49 1.49 1.49 1.49 1.49 1.49 1.49 
1.49 1.49 1.49 1.49 1.49 1.49 1.49 1.49 1.49 
1.49 1.49 1.49 1.49 1.49 1.49 1.49 1.49 1.49 
1.49 1.49 1.50 1.50 1.50 1.50 1.50 1.50 1.50 
1.50 1.50 1.50 1.50 1.50 1.50 1.50 1.50 1.50 
1.50 1.50 1.50 1.50 1.50 1.50 1.50 1.50 1.50 
1.50 1.50 1.50 1.50 1.50 1.50 1.50 1.50 1.50 
1.50 1.50 1.50 1.50 1.50 1.50 1.50 1.50 1.50 
1.50 1.50 1.50 1.50 1.50 1.50 1.50 1.50 1.50 
1.50 1.50 1.50 1.50 1.50 1.50 1.50 1.50 1.50 
1.50 1.50 1.50 1.50 1.50 1.50 1.50 1.50 1.50 
1.50 1.50 1.50 1.50 1.50 1.50 1.50 1.50 1.50 
1.50 1.50 1.50 1.50 1.50 1.50 1.50 1.50 1.50 
1.50 1.50 1.50 1.50 1.50 1.50 1.50 1.50 1.50 
1.50 1.50 1.50 1.50 1.50 1.50 1.50 1.50 1.50 
1.50 1.50 1.50 1.50 1.50 1.50 1.50 1.50 1.50 
1.50 1.50 1.50 1.50 1.50 1.50 1.50 1.50 1.50 
1.50 1.50 1.50 1.50 1.50 1.50 1.50 1.50 1.50 
1.50 1.50 1.50 1.50 1.50 1.50 1.50 1.50 1.50 
1.50 1.50 1.50 1.50 1.50 1.50 1.50 1.50 1.50 
1.50 1.50 1.50 1.50 1.50 1.50 1.50 1.50 1.50 
1.50 1.50 1.50 1.50 1.50 1.50 1.50 1.50 1.50 
1.50 1.50 1.50 1.50 1.50 1.50 1.50 1.50 1.50 
1.50 1.50 1.50 1.50 1.50 1.50 1.50 1.50 1.50 
1.49 1.49 1.49 1.49 1.49 1.49 1.49 1.49 1.49 
1.49 1.49 1.49 1.49 1.49 1.49 1.49 1.49 1.49 
1.49 1.49 1.49 1.49 1.49 1.49 1.49 1.49 1.49 
1.49 1.49 1.49 1.49 1.49 1.49 1.49 1.49 1.49 
1.49 1.49 1.49 1.49 1.49 1.49 1.49 1.49 1.49 
1.49 1.49 1.49 1.49 1.49 1.49 1.49 1.49 1.49 
1.49 1.49 1.49 1.49 1.49 1.49 1.49 1.49 1.49 
1.49 1.49 1.49 1.49 1.49 1.49 1.49 1.49 1.49 
1.49 1.49 1.49 1.49 1.49 1.49 1.49 1.49 1.49 
1.49 1.49 1.49 1.49 1.49 1.49 1.49 1.49 1.49 
1.49 1.49 1.49 1.49 1.50 1.50 1.50 1.50 1.50 
1.50 1.50 1.50 1.50 1.50 1.50 1.50 1.50 1.50 
1.50 1.50 1.50 1.50 1.50 1.50 1.50 1.50 1.50 
1.50 1.50 1.50 1.50 1.50 1.50 1.50 1.50 1.50 
1.50 1.50 1.50 1.50 1.50 1.50 1.50 1.50 1.50 
1.50 1.50 1.50 1.50 1.50 1.50 1.50 1.50 1.50 
1.50 1.50 1.50 1.50 1.50 1.50 1.50 1.50 1.50 
1.50 1.50 1.50 1.50 1.50 1.50 1.50 1.50 1.50 
1.50 1.50 1.50 1.50 1.50 1.50 1.50 1.50 1.50 
1.50 1.50 1.50 1.50 1.50 1.50 1.50 1.50 1.50 
1.50 1.50 1.50 1.50 1.50 1.50 1.50 1.50 1.50 
1.50 1.50 1.50 1.50 1.50 1.50 1.50 1.50 1.50 
1.50 1.50 1.50 1.50 1.50 1.50 1.50 1.50 1.50 
1.50 1.50 1.50 1.50 1.50 1.50 1.50 1.50 1.50 
1.50 1.50 1.50 1.50 1.50 1.50 1.50 1.50 1.50 
1.50 1.50 1.50 1.50 1.50 1.50 1.50 1.50 1.50 
1.50 1.50 1.50 1.50 1.50 1.50 1.50 1.50 1.50 
1.50 1.50 1.50 1.50 1.50 1.50 1.50 1.50 1.50 
1.50 1.50 1.50 1.50 1.50 1.50 1.50 1.50 1.50 
1.50 1.50 1.50 1.50 1.50 1.50 1.50 1.50 1.50 
1.50 1.50 1.50 1.50 1.50 1.49 1.49 1.49 1.49 
1.49 1.49 1.49 1.49 1.49 1.49 1.49 1.49 1.49 
1.49 1.49 1.49 1.49 1.49 1.49 1.49 1.49 1.49 
1.49 1.49 1.49 1.49 1.49 1.49 1.49 1.49 1.49 
1.49 1.49 1.49 1.49 1.49 1.49 1.49 1.49 1.49 
1.49 1.49 1.49 1.49 1.49 1.49 1.49 1.49 1.49 
1.49 1.49 1.49 1.49 1.49 1.49 1.49 1.49 1.49 
1.49 1.49 1.49 1.49 1.49 1.49 1.49 1.49 1.49 
1.49 1.49 1.49 1.49 1.49 1.49 1.49 1.49 1.49 
1.49 1.49 1.49 1.49 1.49 1.49 1.49 1.49 1.49 
1.49 1.49 1.49 1.49 1.49 1.49 1.49 1.49 1.49 
1.49 1.49 1.49 1.49 1.49 1.49 1.49 1.49 1.49 
1.49 1.49 1.49 1.49 1.49 1.49 1.49 1.49 1.49 
1.49 1.49 1.49 1.49 1.49 1.49 1.49 1.49 1.49 
1.49 1.49 1.49 1.49 1.49 1.49 1.49 1.49 1.49 
1.49 1.49 1.49 1.49 1.49 1.50 1.50 1.50 1.50 
1.50 1.50 1.50 1.50 1.50 1.50 1.50 1.50 1.50 
1.50 1.50 1.50 1.50 1.50 1.50 1.50 1.50 1.50 
1.50 1.50 1.50 1.50 1.50 1.50 1.50 1.50 1.50 
1.50 1.50 1.50 1.50 1.50 1.50 1.50 1.50 1.50 
1.50 1.50 1.50 1.50 1.50 1.50 1.50 1.50 1.50 
1.50 1.50 1.50 1.50 1.50 1.50 1.50 1.50 1.50 
1.50 1.50 1.50 1.50 1.50 1.50 1.50 1.50 1.50 
1.50 1.50 1.50 1.50 1.50 1.50 1.50 1.50 1.50 
1.50 1.50 1.50 1.50 1.50 1.50 1.50 1.50 1.50 
1.50 1.50 1.50 1.50 1.50 1.50 1.50 1.50 1.50 
1.50 1.50 1.50 1.50 1.50 1.50 1.50 1.50 1.50 
1.50 1.50 1.50 1.50 1.50 1.50 1.50 1.50 1.50 
1.50 1.50 1.50 1.50 1.50 1.50 1.50 1.50 1.50 
1.50 1.50 1.50 1.50 1.50 1.50 1.50 1.50 1.50 
1.50 1.50 1.50 1.50 1.50 1.50 1.50 1.50 1.50 
1.50 1.50 1.50 1.50 1.50 1.50 1.50 1.50 1.50 
1.50 1.50 1.50 1.50 1.50 1.50 1.50 1.50 1.50 
1.50 1.50 1.50 1.50 1.50 1.50 1.50 1.50 1.50 
1.50 1.50 1.50 1.50 1.50 1.50 1.50 1.50 1.50 
1.50 1.50 1.50 1.50 1.49 1.49 1.49 1.49 1.49 
1.49 1.49 1.49 1.49 1.49 1.49 1.49 1.49 1.49 
1.49 1.49 1.49 1.49 1.49 1.49 1.49 1.49 1.49 
1.49 1.49 1.49 1.49 1.49 1.49 1.49 1.49 1.49 
1.49 1.49 1.49 1.49 1.49 1.49 1.49 1.49 1.49 
1.49 1.49 1.49 1.49 1.49 1.49 1.49 1.49 1.49 
1.49 1.49 1.49 1.49 1.49 1.49 1.49 1.49 1.49 
1.49 1.49 1.49 1.49 1.49 1.49 1.49 1.49 1.49 
1.49 1.49 1.49 1.49 1.49 1.49 1.49 1.49 1.49 
1.49 1.49 1.50 1.50 1.50 1.50 1.50 1.50 1.50 
1.50 1.50 1.50 1.50 1.50 1.50 1.50 1.50 1.50 
1.50 1.50 1.50 1.50 1.50 1.50 1.50 1.50 1.50 
1.50 1.50 1.50 1.50 1.50 1.50 1.50 1.50 1.50 
1.50 1.50 1.50 1.50 1.50 1.50 1.50 1.50 1.50 
1.50 1.50 1.50 1.50 1.50 1.50 1.50 1.50 1.50 
1.50 1.50 1.50 1.50 1.50 1.50 1.50 1.50 1.50 
1.50 1.50 1.50 1.50 1.50 1.50 1.50 1.50 1.50 
1.50 1.50 1.50 1.50 1.50 1.50 1.50 1.50 1.50 
1.50 1.50 1.50 1.50 1.50 1.50 1.50 1.50 1.50 
1.50 1.50 1.50 1.50 1.50 1.50 1.50 1.50 1.50 
1.50 1.50 1.50 1.50 1.50 1.50 1.50 1.50 1.50 
1.50 1.50 1.50 1.50 1.50 1.50 1.50 1.50 1.50 
1.50 1.50 1.50 1.50 1.50 1.50 1.50 1.50 1.50 
1.50 1.50 1.50 1.50 1.50 1.50 1.50 1.50 1.50 
1.50 1.50 1.50 1.50 1.50 1.50 1.50 1.50 1.50 
1.50 1.50 1.50 1.50 1.50 1.50 1.50 1.50 1.50 
1.50 1.50 1.50 1.50 1.50 1.50 1.50 1.50 1.50 
1.50 1.50 1.50 1.50 1.50 1.50 1.50 1.50 1.50 
1.50 1.50 1.50 1.50 1.50 1.50 1.50 1.50 1.50 
1.50 1.50 1.50 1.50 1.50 1.50 1.50 1.50 1.50 
1.50 1.50 1.50 1.50 1.50 1.50 1.50 1.50 1.50 
1.50 1.50 1.50 1.50 1.50 1.50 1.50 1.50 1.50 
1.50 1.50 1.50 1.50 1.50 1.49 1.49 1.49 1.49 
1.49 1.49 1.49 1.49 1.49 1.49 1.50 1.50 1.50 
1.50 1.50 1.50 1.50 1.50 1.50 1.50 1.50 1.50 
1.50 1.50 1.50 1.50 1.50 1.50 1.50 1.50 1.50 
1.50 1.50 1.50 1.50 1.50 1.50 1.50 1.50 1.50 
1.50 1.50 1.50 
