# vtk DataFile Version 3.0
vtk output
ASCII
DATASET POLYDATA
POINTS 1752 float
-311.93 -4.54 -328.84 -310.15 -4.54 -328.83 -308.17 -4.54 -328.83 
-306.05 -4.54 -328.81 -303.83 -4.54 -328.79 -301.55 -4.54 -328.76 
-299.23 -4.54 -328.71 -296.89 -4.54 -328.63 -294.55 -4.54 -328.51 
-292.22 -4.54 -328.33 -289.95 -4.54 -328.08 -287.74 -4.54 -327.74 
-285.63 -4.54 -327.27 -283.65 -4.54 -326.67 -281.81 -4.54 -325.90 
-280.14 -4.55 -324.95 -278.66 -4.55 -323.80 -277.36 -4.55 -322.44 
-276.25 -4.55 -320.87 -275.32 -4.55 -319.11 -274.57 -4.55 -317.15 
-273.97 -4.55 -315.03 -273.51 -4.55 -312.76 -273.16 -4.55 -310.37 
-272.91 -4.55 -307.88 -272.73 -4.55 -305.33 -272.61 -4.55 -302.72 
-272.54 -4.55 -300.08 -272.49 -4.54 -297.41 -272.46 -4.54 -294.72 
-272.44 -4.54 -292.02 -272.43 -4.54 -289.32 -272.42 -4.54 -286.60 
-272.42 -4.54 -283.88 -272.42 -4.54 -281.16 -272.42 -4.54 -278.44 
-272.42 -4.54 -275.71 -272.42 -4.54 -272.99 -272.42 -4.54 -270.26 
-272.42 -4.54 -267.54 -272.42 -4.54 -264.83 -272.42 -4.54 -262.13 
-272.42 -4.54 -259.43 -272.42 -4.54 -256.76 -272.42 -4.54 -254.09 
-272.42 -4.54 -251.45 -272.42 -4.54 -248.82 -272.42 -4.54 -246.21 
-272.42 -4.54 -243.63 -272.42 -4.54 -241.06 -272.42 -4.54 -238.51 
-272.42 -4.54 -235.98 -272.42 -4.54 -233.47 -272.42 -4.54 -230.98 
-272.42 -4.54 -228.50 -272.42 -4.54 -226.03 -272.42 -4.54 -223.58 
-272.42 -4.54 -221.13 -272.42 -4.54 -218.69 -272.42 -4.54 -216.26 
-272.42 -4.54 -213.83 -272.42 -4.54 -211.40 -272.42 -4.54 -208.97 
-272.42 -4.54 -206.54 -272.42 -4.54 -204.10 -272.42 -4.54 -201.66 
-272.42 -4.54 -199.22 -272.42 -4.54 -196.77 -272.42 -4.54 -194.30 
-272.42 -4.54 -191.83 -272.42 -4.54 -189.34 -272.42 -4.54 -186.83 
-272.42 -4.54 -184.31 -272.42 -4.54 -181.77 -272.42 -4.54 -179.20 
-272.42 -4.54 -176.61 -272.42 -4.54 -174.00 -272.42 -4.54 -171.37 
-272.42 -4.54 -168.71 -272.42 -4.54 -166.03 -272.42 -4.54 -163.32 
-272.42 -4.54 -160.59 -272.42 -4.54 -157.84 -272.42 -4.54 -155.08 
-272.42 -4.54 -152.29 -272.42 -4.54 -149.49 -272.42 -4.54 -146.68 
-272.42 -4.54 -143.85 -272.42 -4.54 -141.02 -272.42 -4.54 -138.19 
-272.42 -4.54 -135.35 -272.42 -4.54 -132.51 -272.42 -4.54 -129.66 
-272.42 -4.54 -126.82 -272.42 -4.54 -123.98 -272.42 -4.54 -121.15 
-272.42 -4.54 -118.31 -272.42 -4.54 -115.48 -272.42 -4.54 -112.65 
-272.42 -4.54 -109.83 -272.42 -4.54 -107.01 -272.42 -4.54 -104.19 
-272.42 -4.54 -101.37 -272.42 -4.54 -98.56 -272.42 -4.54 -95.74 
-272.42 -4.54 -92.93 -272.42 -4.54 -90.11 -272.42 -4.54 -87.29 
-272.42 -4.54 -84.47 -272.42 -4.54 -81.65 -272.42 -4.54 -78.82 
-272.42 -4.54 -75.98 -272.42 -4.54 -73.15 -272.42 -4.54 -70.31 
-272.42 -4.54 -67.46 -272.42 -4.54 -64.61 -272.42 -4.54 -61.76 
-272.42 -4.54 -58.91 -272.42 -4.54 -56.06 -272.42 -4.54 -53.20 
-272.42 -4.54 -50.35 -272.42 -4.54 -47.50 -272.42 -4.54 -44.66 
-272.42 -4.54 -41.82 -272.42 -4.54 -38.98 -272.42 -4.54 -36.15 
-272.42 -4.54 -33.32 -272.42 -4.54 -30.50 -272.42 -4.54 -27.68 
-272.42 -4.54 -24.87 -272.42 -4.54 -22.06 -272.42 -4.54 -19.25 
-272.42 -4.54 -16.44 -272.42 -4.54 -13.63 -272.42 -4.54 -10.81 
-272.42 -4.54 -8.00 -272.42 -4.54 -5.18 -272.42 -4.54 -2.35 
-272.42 -4.54 0.48 -272.42 -4.54 3.32 -272.42 -4.54 6.17 
-272.42 -4.54 9.02 -272.42 -4.54 11.88 -272.42 -4.54 14.75 
-272.42 -4.54 17.62 -272.42 -4.54 20.50 -272.42 -4.54 23.38 
-272.42 -4.54 26.26 -272.42 -4.54 29.15 -272.42 -4.54 32.04 
-272.42 -4.54 34.93 -272.42 -4.54 37.82 -272.42 -4.54 40.71 
-272.42 -4.54 43.60 -272.42 -4.54 46.49 -272.42 -4.54 49.38 
-272.42 -4.54 52.27 -272.42 -4.54 55.16 -272.42 -4.54 58.05 
-272.42 -4.54 60.93 -272.42 -4.54 63.81 -272.42 -4.54 66.68 
-272.42 -4.54 69.56 -272.42 -4.54 72.42 -272.42 -4.54 75.29 
-272.42 -4.54 78.14 -272.42 -4.54 80.99 -272.42 -4.54 83.83 
-272.42 -4.54 86.66 -272.41 -4.54 89.47 -272.41 -4.54 92.27 
-272.40 -4.54 95.06 -272.38 -4.54 97.82 -272.36 -4.54 100.57 
-272.32 -4.54 103.28 -272.27 -4.54 105.97 -272.19 -4.54 108.63 
-272.09 -4.54 111.25 -271.95 -4.54 113.83 -271.76 -4.54 116.37 
-271.52 -4.54 118.86 -271.22 -4.54 121.29 -270.86 -4.54 123.67 
-270.41 -4.54 125.98 -269.89 -4.54 128.22 -269.28 -4.54 130.40 
-268.58 -4.54 132.49 -267.80 -4.54 134.51 -266.92 -4.54 136.45 
-265.96 -4.54 138.31 -264.92 -4.54 140.08 -263.79 -4.54 141.77 
-262.58 -4.54 143.37 -261.30 -4.54 144.89 -259.95 -4.54 146.31 
-258.52 -4.54 147.65 -257.02 -4.54 148.90 -255.46 -4.54 150.06 
-253.84 -4.54 151.13 -252.15 -4.54 152.11 -250.40 -4.54 153.00 
-248.59 -4.54 153.79 -246.73 -4.54 154.47 -244.81 -4.54 155.06 
-242.84 -4.54 155.54 -240.83 -4.54 155.91 -238.77 -4.54 156.16 
-236.68 -4.54 156.29 -234.55 -4.54 156.30 -232.40 -4.54 156.19 
-230.24 -4.54 155.94 -228.07 -4.54 155.55 -225.90 -4.54 155.03 
-223.75 -4.54 154.37 -221.62 -4.54 153.57 -219.53 -4.54 152.64 
-217.50 -4.54 151.57 -215.52 -4.54 150.37 -213.61 -4.54 149.05 
-211.79 -4.54 147.60 -210.06 -4.54 146.04 -208.43 -4.54 144.38 
-206.90 -4.54 142.61 -205.50 -4.54 140.75 -204.21 -4.54 138.81 
-203.04 -4.54 136.80 -202.00 -4.54 134.71 -201.08 -4.54 132.57 
-200.28 -4.54 130.38 -199.59 -4.54 128.15 -199.00 -4.54 125.88 
-198.52 -4.54 123.58 -198.13 -4.54 121.25 -197.81 -4.54 118.91 
-197.56 -4.54 116.54 -197.37 -4.54 114.17 -197.23 -4.54 111.79 
-197.12 -4.54 109.40 -197.04 -4.54 107.01 -196.99 -4.54 104.62 
-196.95 -4.54 102.23 -196.92 -4.54 99.85 -196.91 -4.54 97.48 
-196.89 -4.54 95.11 -196.88 -4.54 92.76 -196.88 -4.54 90.43 
-196.87 -4.54 88.12 -196.87 -4.54 85.84 -196.86 -4.54 83.58 
-196.86 -4.54 81.34 -196.85 -4.54 79.14 -196.85 -4.54 76.97 
-196.85 -4.54 74.83 -196.84 -4.54 72.73 -196.84 -4.54 70.66 
-196.84 -4.54 68.61 -196.83 -4.54 66.60 -196.83 -4.54 64.61 
-196.83 -4.54 62.64 -196.82 -4.54 60.69 -196.82 -4.54 58.75 
-196.82 -4.54 56.82 -196.82 -4.54 54.90 -196.81 -4.54 52.97 
-196.81 -4.54 51.04 -196.81 -4.54 49.10 -196.80 -4.54 47.15 
-196.80 -4.54 45.18 -196.80 -4.54 43.19 -196.79 -4.54 41.17 
-196.79 -4.54 39.14 -196.79 -4.54 37.07 -196.78 -4.54 34.99 
-196.78 -4.54 32.87 -196.78 -4.54 30.74 -196.77 -4.54 28.57 
-196.77 -4.54 26.39 -196.77 -4.54 24.19 -196.76 -4.54 21.98 
-196.76 -4.54 19.75 -196.76 -4.54 17.51 -196.75 -4.54 15.26 
-196.75 -4.54 13.02 -196.74 -4.54 10.77 -196.74 -4.54 8.54 
-196.74 -4.54 6.31 -196.73 -4.54 4.09 -196.73 -4.54 1.88 
-196.73 -4.54 -0.31 -196.72 -4.54 -2.49 -196.72 -4.54 -4.65 
-196.72 -4.54 -6.80 -196.71 -4.54 -8.94 -196.71 -4.54 -11.07 
-196.71 -4.54 -13.19 -196.70 -4.54 -15.30 -196.70 -4.54 -17.41 
-196.70 -4.54 -19.52 -196.69 -4.54 -21.62 -196.69 -4.54 -23.74 
-196.69 -4.54 -25.85 -196.68 -4.54 -27.97 -196.68 -4.54 -30.10 
-196.67 -4.54 -32.24 -196.67 -4.54 -34.38 -196.67 -4.54 -36.53 
-196.66 -4.54 -38.70 -196.66 -4.54 -40.87 -196.66 -4.54 -43.05 
-196.65 -4.54 -45.24 -196.65 -4.54 -47.44 -196.65 -4.54 -49.66 
-196.64 -4.54 -51.88 -196.64 -4.54 -54.12 -196.64 -4.54 -56.37 
-196.63 -4.54 -58.63 -196.63 -4.54 -60.91 -196.63 -4.54 -63.19 
-196.62 -4.54 -65.49 -196.62 -4.54 -67.79 -196.61 -4.54 -70.11 
-196.61 -4.54 -72.43 -196.61 -4.54 -74.75 -196.60 -4.54 -77.08 
-196.60 -4.54 -79.41 -196.60 -4.54 -81.74 -196.59 -4.54 -84.08 
-196.59 -4.54 -86.40 -196.58 -4.54 -88.73 -196.58 -4.54 -91.05 
-196.58 -4.54 -93.36 -196.57 -4.54 -95.67 -196.57 -4.54 -97.98 
-196.57 -4.54 -100.28 -196.56 -4.54 -102.57 -196.56 -4.54 -104.86 
-196.55 -4.54 -107.15 -196.55 -4.54 -109.44 -196.55 -4.54 -111.72 
-196.54 -4.54 -114.00 -196.54 -4.54 -116.28 -196.54 -4.54 -118.57 
-196.53 -4.54 -120.85 -196.53 -4.54 -123.13 -196.52 -4.54 -125.42 
-196.52 -4.54 -127.71 -196.52 -4.54 -129.99 -196.51 -4.54 -132.28 
-196.51 -4.54 -134.57 -196.51 -4.54 -136.86 -196.50 -4.54 -139.15 
-196.50 -4.54 -141.44 -196.50 -4.54 -143.73 -196.49 -4.54 -146.02 
-196.49 -4.54 -148.31 -196.48 -4.54 -150.60 -196.48 -4.54 -152.89 
-196.48 -4.54 -155.18 -196.47 -4.54 -157.47 -196.47 -4.54 -159.76 
-196.47 -4.54 -162.05 -196.46 -4.54 -164.33 -196.46 -4.54 -166.62 
-196.45 -4.54 -168.91 -196.45 -4.54 -171.20 -196.45 -4.54 -173.49 
-196.44 -4.54 -175.79 -196.44 -4.54 -178.08 -196.44 -4.54 -180.38 
-196.43 -4.54 -182.67 -196.43 -4.54 -184.97 -196.43 -4.54 -187.27 
-196.42 -4.54 -189.57 -196.42 -4.54 -191.87 -196.41 -4.54 -194.17 
-196.41 -4.54 -196.47 -196.41 -4.54 -198.77 -196.40 -4.54 -201.06 
-196.40 -4.54 -203.35 -196.40 -4.54 -205.63 -196.39 -4.54 -207.90 
-196.39 -4.54 -210.17 -196.38 -4.54 -212.43 -196.38 -4.54 -214.68 
-196.38 -4.54 -216.93 -196.37 -4.54 -219.17 -196.37 -4.54 -221.40 
-196.37 -4.54 -223.62 -196.36 -4.54 -225.84 -196.36 -4.54 -228.06 
-196.36 -4.54 -230.27 -196.35 -4.54 -232.48 -196.35 -4.54 -234.69 
-196.35 -4.54 -236.91 -196.34 -4.54 -239.12 -196.34 -4.54 -241.34 
-196.33 -4.54 -243.57 -196.33 -4.54 -245.79 -196.33 -4.54 -248.03 
-196.32 -4.54 -250.27 -196.32 -4.54 -252.52 -196.32 -4.54 -254.77 
-196.31 -4.54 -257.03 -196.31 -4.54 -259.30 -196.30 -4.54 -261.57 
-196.30 -4.54 -263.84 -196.29 -4.54 -266.13 -196.29 -4.54 -268.41 
-196.28 -4.54 -270.70 -196.27 -4.54 -272.99 -196.25 -4.54 -275.28 
-196.22 -4.54 -277.58 -196.19 -4.54 -279.87 -196.15 -4.54 -282.16 
-196.08 -4.54 -284.44 -196.00 -4.54 -286.72 -195.89 -4.54 -288.98 
-195.74 -4.54 -291.24 -195.56 -4.54 -293.48 -195.33 -4.54 -295.70 
-195.05 -4.54 -297.90 -194.71 -4.54 -300.08 -194.32 -4.54 -302.23 
-193.85 -4.54 -304.36 -193.32 -4.54 -306.45 -192.72 -4.54 -308.51 
-192.05 -4.54 -310.53 -191.31 -4.54 -312.51 -190.50 -4.54 -314.45 
-189.61 -4.54 -316.35 -188.65 -4.54 -318.21 -187.62 -4.54 -320.02 
-186.52 -4.54 -321.79 -185.35 -4.54 -323.51 -184.11 -4.54 -325.18 
-182.81 -4.54 -326.80 -181.43 -4.54 -328.37 -179.99 -4.54 -329.89 
-178.49 -4.54 -331.35 -176.92 -4.54 -332.75 -175.29 -4.54 -334.10 
-173.59 -4.54 -335.38 -171.84 -4.54 -336.60 -170.03 -4.54 -337.76 
-168.16 -4.54 -338.84 -166.25 -4.54 -339.85 -164.29 -4.54 -340.79 
-162.29 -4.54 -341.64 -160.25 -4.54 -342.42 -158.17 -4.54 -343.11 
-156.06 -4.54 -343.72 -153.92 -4.54 -344.24 -151.75 -4.54 -344.66 
-149.57 -4.54 -345.00 -147.36 -4.54 -345.25 -145.14 -4.54 -345.40 
[...]
POINT_DATA 1752
FIELD FieldData 1
MaximumInscribedSphereRadius 1 1752 double
1.50 1.50 1.50 1.50 1.50 1.50 1.50 1.50 1.50 
1.50 1.50 1.50 1.50 1.50 1.50 1.50 1.50 1.50 
1.50 1.50 1.50 1.50 1.50 1.50 1.50 1.50 1.50 
1.50 1.50 1.50 1.50 1.50 1.50 1.50 1.50 1.50 
1.50 1.50 1.50 1.50 1.50 1.50 1.50 1.50 1.50 
1.50 1.50 1.50 1.50 1.50 1.50 1.50 1.50 1.50 
1.50 1.50 1.50 1.50 1.50 1.50 1.50 1.50 1.50 
1.50 1.50 1.50 1.50 1.50 1.50 1.50 1.50 1.50 
1.50 1.50 1.50 1.50 1.50 1.50 1.50 1.50 1.50 
1.50 1.50 1.50 1.50 1.50 1.50 1.50 1.50 1.50 
1.50 1.50 1.50 1.50 1.50 1.50 1.50 1.50 1.50 
1.50 1.50 1.50 1.50 1.50 1.50 1.50 1.50 1.50 
1.50 1.50 1.50 1.50 1.50 1.50 1.50 1.50 1.50 
1.50 1.50 1.50 1.50 1.50 1.50 1.50 1.50 1.50 
1.50 1.50 1.50 1.50 1.50 1.50 1.50 1.50 1.50 
1.50 1.50 1.50 1.50 1.50 1.50 1.50 1.50 1.50 
1.50 1.50 1.50 1.50 1.50 1.50 1.50 1.50 1.50 
1.50 1.50 1.50 1.50 1.50 1.50 1.50 1.50 1.50 
1.50 1.50 1.50 1.50 1.50 1.50 1.50 1.50 1.50 
1.50 1.50 1.50 1.50 1.50 1.50 1.50 1.50 1.50 
1.49 1.49 1.49 1.49 1.49 1.49 1.49 1.49 1.49 
1.49 1.49 1.49 1.49 1.49 1.49 1.49 1.49 1.49 
1.49 1.49 1.49 1.49 1.49 1.49 1.49 1.49 1.49 
1.49 1.49 1.49 1.49 1.49 1.49 1.49 1.49 1.49 
1.49 1.49 1.49 1.49 1.49 1.49 1.49 1.49 1.49 
1.49 1.49 1.49 1.49 1.49 1.49 1.49 1.49 1.49 
1.50 1.50 1.50 1.50 1.50 1.50 1.50 1.50 1.50 
1.50 1.50 1.50 1.50 1.50 1.50 1.50 1.50 1.50 
1.50 1.50 1.50 1.50 1.50 1.50 1.50 1.50 1.50 
1.50 1.50 1.50 1.50 1.50 1.50 1.50 1.50 1.50 
1.50 1.50 1.50 1.50 1.50 1.50 1.50 1.50 1.50 
1.50 1.50 1.50 1.50 1.50 1.50 1.50 1.50 1.50 
1.50 1.50 1.50 1.50 1.50 1.50 1.50 1.50 1.50 
1.50 1.50 1.50 1.50 1.50 1.50 1.50 1.50 1.50 
1.50 1.50 1.50 1.50 1.50 1.50 1.50 1.50 1.50 
1.50 1.50 1.50 1.50 1.50 1.50 1.50 1.50 1.50 
1.50 1.50 1.50 1.50 1.50 1.50 1.50 1.50 1.50 
1.50 1.50 1.50 1.50 1.50 1.50 1.50 1.50 1.50 
1.50 1.50 1.50 1.50 1.50 1.50 1.50 1.50 1.50 
1.50 1.50 1.50 1.50 1.50 1.50 1.50 1.50 1.50 
1.50 1.50 1.50 1.50 1.50 1.50 1.50 1.50 1.50 
1.50 1.50 1.50 1.50 1.50 1.50 1.50 1.50 1.50 
1.50 1.50 1.50 1.50 1.50 1.50 1.50 1.50 1.50 
1.50 1.50 1.50 1.50 1.50 1.50 1.50 1.50 1.50 
1.50 1.50 1.50 1.50 1.50 1.50 1.50 1.50 1.50 
1.50 1.50 1.50 1.50 1.50 1.50 1.50 1.50 1.50 
1.50 1.50 1.50 1.50 1.50 1.50 1.49 1.49 1.49 
1.49 1.49 1.49 1.49 1.49 1.49 1.49 1.49 1.49 
1.49 1.49 1.49 1.49 1.49 1.49 1.49 1.49 1.49 
1.49 1.49 1.49 1.49 1.49 1.49 1.49 1.49 1.49 
1.49 1.49 1.49 1.49 1.49 1.49 1.49 1.49 1.49 
1.49 1.49 1.49 1.49 1.49 1.49 1.49 1.49 1.49 
1.49 1.49 1.49 1.49 1.49 1.49 1.49 1.49 1.49 
1.49 1.49 1.49 1.49 1.49 1.49 1.49 1.49 1.49 
1.49 1.49 1.49 1.49 1.49 1.50 1.50 1.50 1.50 
1.50 1.50 1.50 1.50 1.50 1.50 1.50 1.50 1.50 
1.50 1.50 1.50 1.50 1.50 1.50 1.50 1.50 1.50 
1.50 1.50 1.50 1.50 1.50 1.50 1.50 1.50 1.50 
1.50 1.50 1.50 1.50 1.50 1.50 1.50 1.50 1.50 
1.50 1.50 1.50 1.50 1.50 1.50 1.50 1.50 1.50 
1.50 1.50 1.50 1.50 1.50 1.50 1.50 1.50 1.50 
1.50 1.50 1.50 1.50 1.50 1.50 1.50 1.50 1.50 
1.50 1.50 1.50 1.50 1.50 1.50 1.50 1.50 1.50 
1.50 1.50 1.50 1.50 1.50 1.50 1.50 1.50 1.50 
1.50 1.50 1.50 1.50 1.50 1.50 1.50 1.50 1.50 
1.50 1.50 1.50 1.50 1.50 1.50 1.50 1.50 1.50 
1.50 1.50 1.50 1.50 1.50 1.50 1.50 1.50 1.50 
1.50 1.50 1.50 1.50 1.50 1.50 1.50 1.50 1.50 
1.50 1.50 1.50 1.50 1.50 1.50 1.50 1.50 1.50 
1.50 1.50 1.50 1.50 1.50 1.50 1.50 1.50 1.50 
1.50 1.50 1.50 1.50 1.50 1.50 1.50 1.50 1.50 
1.50 1.49 1.49 1.49 1.49 1.49 1.49 1.49 1.49 
1.49 1.49 1.49 1.49 1.49 1.49 1.49 1.49 1.49 
1.49 1.49 1.49 1.49 1.49 1.49 1.49 1.49 1.49 
1.49 1.49 1.49 1.49 1.49 1.49 1.49 1.49 1.49 
1.49 1.49 1.49 1.49 1.49 1.49 1.49 1.49 1.49 
1.49 1.49 1.49 1.49 1.49 1.49 1.49 1.49 1.49 
1.49 1.49 1.49 1.49 1.50 1.50 1.50 1.50 1.50 
1.50 1.50 1.50 1.50 1.50 1.50 1.50 1.50 1.50 
1.50 1.50 1.50 1.50 1.50 1.50 1.50 1.50 1.50 
1.50 1.50 1.50 1.50 1.50 1.50 1.50 1.50 1.50 
1.50 1.50 1.50 1.50 1.50 1.50 1.50 1.50 1.50 
1.50 1.50 1.50 1.50 1.50 1.50 1.50 1.50 1.50 
1.50 1.50 1.50 1.50 1.50 1.50 1.50 1.50 1.50 
1.50 1.50 1.50 1.50 1.50 1.50 1.50 1.50 1.50 
1.50 1.50 1.50 1.50 1.50 1.50 1.50 1.50 1.50 
1.50 1.50 1.50 1.50 1.50 1.50 1.50 1.50 1.50 
1.50 1.50 1.50 1.50 1.50 1.50 1.50 1.50 1.50 
1.50 1.50 1.50 1.50 1.50 1.50 1.50 1.50 1.50 
1.50 1.50 1.50 1.50 1.50 1.50 1.50 1.50 1.50 
1.50 1.50 1.50 1.50 1.50 1.50 1.50 1.50 1.50 
1.50 1.50 1.50 1.50 1.50 1.50 1.50 1.50 1.50 
1.50 1.50 1.50 1.50 1.50 1.50 1.50 1.50 1.50 
1.50 1.50 1.50 1.50 1.50 1.50 1.50 1.50 1.50 
1.50 1.50 1.50 1.50 1.50 1.50 1.50 1.50 1.50 
1.50 1.50 1.50 1.50 1.50 1.50 1.50 1.50 1.50 
1.50 1.50 1.50 1.50 1.50 1.51 1.51 1.51 1.51 
1.51 1.51 1.50 1.50 1.50 1.50 1.50 1.50 1.50 
1.50 1.50 1.50 1.50 1.50 1.50 1.50 1.50 1.50 
1.50 1.50 1.50 1.50 1.50 1.50 1.50 1.50 1.50 
1.50 1.50 1.50 1.50 1.50 1.50 1.50 1.50 1.50 
1.50 1.50 1.50 1.50 1.50 1.50 1.50 1.50 1.50 
1.50 1.50 1.50 1.50 1.50 1.50 1.50 1.50 1.50 
1.50 1.50 1.50 1.50 1.50 1.50 1.50 1.50 1.50 
1.50 1.50 1.50 1.50 1.50 1.50 1.50 1.50 1.50 
1.50 1.50 1.50 1.50 1.50 1.50 1.50 1.50 1.50 
1.50 1.50 1.50 1.50 1.50 1.50 1.50 1.50 1.50 
1.50 1.50 1.50 1.50 1.50 1.50 1.50 1.50 1.50 
1.50 1.50 1.50 1.50 1.50 1.50 1.50 1.50 1.50 
1.50 1.50 1.50 1.50 1.50 1.50 1.50 1.50 1.50 
1.50 1.50 1.50 1.50 1.50 1.50 1.50 1.50 1.50 
1.50 1.50 1.50 1.50 1.50 1.50 1.50 1.50 1.50 
1.50 1.50 1.50 1.50 1.50 1.50 1.50 1.50 1.50 
1.50 1.50 1.50 1.50 1.50 1.50 1.50 1.50 1.50 
1.50 1.50 1.50 1.50 1.50 1.50 1.50 1.50 1.50 
1.50 1.50 1.50 1.50 1.50 1.50 1.50 1.50 1.50 
1.50 1.50 1.50 1.50 1.50 1.50 1.50 1.49 1.49 
1.49 1.49 1.49 1.49 1.49 1.49 1.49 1.49 1.49 
1.49 1.49 1.49 1.49 1.49 1.49 1.49 1.49 1.49 
1.49 1.49 1.49 1.49 1.49 1.49 1.49 1.49 1.49 
1.49 1.49 1.49 1.49 1.49 1.49 1.49 1.49 1.49 
1.49 1.49 1.49 1.49 1.49 1.49 1.49 1.49 1.49 
1.49 1.49 1.49 1.49 1.49 1.49 1.49 1.49 1.49 
1.49 1.49 1.49 1.49 1.49 1.49 1.49 1.49 1.49 
1.50 1.50 1.50 1.50 1.50 1.50 1.50 1.50 1.50 
1.50 1.50 1.50 1.50 1.50 1.50 1.50 1.50 1.50 
1.50 1.50 1.50 1.50 1.50 1.50 1.50 1.50 1.50 
1.50 1.50 1.50 1.50 1.50 1.50 1.50 1.50 1.50 
1.50 1.50 1.50 1.50 1.50 1.50 1.50 1.50 1.50 
1.50 1.50 1.50 1.50 1.50 1.50 1.50 1.50 1.50 
1.50 1.50 1.50 1.50 1.50 1.50 1.50 1.50 1.50 
1.50 1.50 1.50 1.50 1.50 1.50 1.50 1.50 1.50 
1.50 1.50 1.50 1.50 1.50 1.50 1.50 1.50 1.50 
1.50 1.50 1.50 1.50 1.50 1.50 1.50 1.50 1.50 
1.50 1.50 1.50 1.50 1.50 1.50 1.50 1.50 1.50 
1.50 1.50 1.50 1.50 1.50 1.50 1.50 1.50 1.50 
1.50 1.50 1.50 1.50 1.50 1.50 1.50 1.50 1.50 
1.50 1.50 1.50 1.50 1.50 1.50 1.50 1.50 1.50 
1.50 1.50 1.50 1.50 1.50 1.50 1.50 1.50 1.50 
1.50 1.50 1.50 1.50 1.50 1.50 1.50 1.50 1.50 
1.50 1.50 1.50 1.50 1.50 1.50 1.50 1.49 1.49 
1.49 1.49 1.49 1.49 1.49 1.49 1.49 1.49 1.49 
1.49 1.49 1.49 1.49 1.49 1.49 1.49 1.49 1.49 
1.49 1.49 1.49 1.49 1.49 1.49 1.49 1.49 1.49 
1.49 1.49 1.49 1.49 1.49 1.48 1.48 1.48 1.48 
1.48 1.48 1.48 1.49 1.49 1.49 1.49 1.49 1.49 
1.49 1.49 1.49 1.49 1.49 1.49 1.49 1.49 1.49 
1.49 1.49 1.49 1.49 1.49 1.49 1.50 1.50 1.50 
1.50 1.50 1.50 1.50 1.50 1.50 1.50 1.50 1.50 
1.50 1.50 1.50 1.50 1.50 1.50 1.50 1.50 1.50 
1.50 1.50 1.50 1.50 1.50 1.50 1.50 1.50 1.50 
1.50 1.50 1.50 1.50 1.50 1.50 1.50 1.50 1.50 
1.50 1.50 1.50 1.50 1.50 1.50 1.50 1.50 1.50 
1.50 1.50 1.50 1.50 1.50 1.50 1.50 1.50 1.50 
1.50 1.50 1.50 1.50 1.50 1.50 1.50 1.50 1.50 
1.50 1.50 1.50 1.50 1.50 1.50 1.50 1.50 1.50 
1.50 1.50 1.50 1.50 1.50 1.50 1.50 1.50 1.50 
1.50 1.50 1.50 1.50 1.50 1.50 1.50 1.50 1.50 
1.50 1.50 1.50 1.50 1.50 1.50 1.50 1.50 1.50 
1.50 1.50 1.50 1.50 1.50 1.50 1.50 1.50 1.50 
1.50 1.50 1.50 1.50 1.50 1.50 1.50 1.50 1.50 
1.50 1.50 1.50 1.50 1.50 1.50 1.50 1.50 1.50 
1.50 1.50 1.50 1.50 1.50 1.50 1.50 1.50 1.50 
1.50 1.50 1.50 1.50 1.50 1.50 1.50 1.50 1.50 
1.50 1.50 1.50 1.50 1.50 1.50 1.50 1.50 1.50 
1.50 1.50 1.50 1.50 1.50 1.50 1.50 1.50 1.50 
1.50 1.50 1.50 1.50 1.50 1.50 1.50 1.50 1.50 
1.50 1.50 1.50 1.50 1.50 1.50 1.49 1.49 1.49 
1.49 1.49 1.49 1.49 1.49 1.49 1.49 1.49 1.49 
1.49 1.49 1.49 1.49 1.49 1.49 1.49 1.49 1.49 
1.49 1.49 1.49 1.49 1.49 1.49 1.49 1.49 1.49 
1.49 1.49 1.49 1.49 1.49 1.49 1.49 1.49 1.49 
1.49 1.49 1.49 1.49 1.49 1.49 1.49 1.49 1.49 
1.49 1.49 1.49 1.49 1.49 1.49 1.49 1.49 1.49 
1.49 1.49 1.49 1.49 1.49 1.49 1.49 1.49 1.49 
1.50 1.50 1.50 1.50 1.50 1.50 1.50 1.50 1.50 
1.50 1.50 1.50 1.50 1.50 1.50 1.50 1.50 1.50 
1.50 1.50 1.50 1.50 1.50 1.50 1.50 1.50 1.50 
1.50 1.50 1.50 1.50 1.50 1.50 1.50 1.50 1.50 
1.50 1.50 1.50 1.50 1.50 1.50 1.50 1.50 1.50 
1.50 1.50 1.50 1.50 1.50 1.50 1.50 1.50 1.50 
1.50 1.50 1.50 1.50 1.50 1.50 1.50 1.50 1.50 
1.50 1.50 1.50 1.50 1.50 1.50 1.50 1.50 1.50 
1.50 1.50 1.50 1.50 1.50 1.50 1.50 1.50 1.50 
1.50 1.50 1.50 1.50 1.50 1.50 1.50 1.50 1.50 
1.50 1.50 1.50 1.50 1.50 1.50 1.50 1.50 1.50 
1.50 1.50 1.50 1.50 1.50 1.50 1.50 1.50 1.50 
1.50 1.50 1.50 1.50 1.50 1.50 1.50 1.50 1.50 
1.50 1.50 1.50 1.50 1.50 1.50 1.50 1.50 1.50 
1.50 1.50 1.50 1.50 1.50 1.50 1.50 1.50 1.50 
1.50 1.50 1.50 1.50 1.50 1.50 1.50 1.50 1.50 
1.50 1.50 1.50 1.50 1.50 1.50 1.50 1.50 1.50 
1.49 1.49 1.49 1.49 1.49 1.49 1.49 1.49 1.49 
1.49 1.49 1.49 1.49 1.49 1.50 1.50 1.50 1.50 
1.50 1.50 1.50 1.50 1.50 1.50 
