# vtk DataFile Version 3.0
vtk output
ASCII
DATASET POLYDATA
POINTS 20 float
2524.54 296.31 885.48 2520.66 296.21 885.28 2515.32 295.99 884.90 
2507.78 295.54 884.20 2497.00 294.71 882.97 2481.88 293.32 880.97 
2461.66 291.23 877.98 2436.55 288.38 873.94 2408.00 284.88 868.95 
2378.59 280.96 863.31 2351.29 276.93 857.45 2328.54 273.07 851.74 
2311.59 269.54 846.43 2300.36 266.40 841.61 2293.81 263.61 837.27 
2290.51 261.11 833.37 2289.13 258.89 829.92 2288.72 256.96 826.94 
2532.87 296.36 885.68 2289.01 251.94 819.31 
LINES 1 21
20 19 17 16 15 14 13 12 11 10 9 8 7 6 5 4 3 2 1 0 18 
POINT_DATA 20
FIELD FieldData 1
MaximumInscribedSphereRadius 1 20 double
35.01 35.01 35.01 34.98 34.91 34.75 34.49 34.08 33.53 
32.87 32.19 31.59 31.20 31.12 31.37 31.93 32.69 33.52 
35.00 34.30 
