# vtk DataFile Version 3.0
vtk output
ASCII
DATASET POLYDATA
POINTS 40 float
2753.34 369.82 894.20 2751.44 369.99 894.17 2748.80 370.24 894.09 
2745.60 370.56 893.97 2742.03 370.92 893.82 2738.21 371.32 893.64 
2734.25 371.71 893.48 2730.21 372.06 893.36 2726.12 372.34 893.30 
2721.99 372.53 893.31 2717.82 372.58 893.40 2713.58 372.44 893.57 
2709.22 372.00 893.83 2704.63 371.08 894.20 2699.69 369.41 894.70 
2694.24 366.72 895.37 2688.22 362.79 896.21 2681.66 357.55 897.20 
2674.76 351.20 898.31 2667.86 344.16 899.46 2661.30 336.99 900.56 
2655.37 330.24 901.54 2650.15 324.28 902.38 2645.57 319.27 903.04 
2641.43 315.20 903.57 2637.52 311.95 903.97 2633.69 309.39 904.28 
2629.82 307.37 904.53 2625.87 305.80 904.73 2621.83 304.58 904.89 
2617.71 303.62 904.99 2613.50 302.87 905.04 2609.24 302.24 905.06 
2604.97 301.67 905.07 2600.83 301.13 905.09 2597.01 300.62 905.14 
2593.76 300.15 905.21 2591.38 299.80 905.29 2761.56 369.28 894.04 
2580.20 298.37 906.09 
LINES 1 41
40 39 37 36 35 34 33 32 31 30 29 28 27 26 25 24 23 22 21 20 19 18 17 16 15 14 13 12 11 10 9 8 7 6 5 4 3 2 1 0 38 
POINT_DATA 40
FIELD FieldData 1
MaximumInscribedSphereRadius 1 40 double
35.67 35.52 35.33 35.14 34.99 34.89 34.86 34.88 34.94 
35.01 35.06 35.07 35.00 34.84 34.58 34.23 33.83 33.41 
33.03 32.71 32.47 32.32 32.26 32.27 32.34 32.45 32.59 
32.74 32.88 33.00 33.10 33.18 33.25 33.32 33.41 33.52 
33.65 33.75 36.27 34.44 
