# vtk DataFile Version 3.0
vtk output
ASCII
DATASET POLYDATA
POINTS 4 float
1704.96 335.92 1151.67 1706.70 335.66 1150.39 1699.03 336.77 1156.03 
1712.63 334.81 1146.03 
LINES 1 5
4 3 1 0 2 
POINT_DATA 4
FIELD FieldData 1
MaximumInscribedSphereRadius 1 4 double
62.69 62.69 62.69 62.69 
