# vtk DataFile Version 3.0
vtk output
ASCII
DATASET POLYDATA
POINTS 286 float
-11.77 -4.54 -60.24 -13.34 -4.54 -60.18 -15.08 -4.54 -60.09 
-16.93 -4.54 -59.96 -18.82 -4.54 -59.76 -20.73 -4.54 -59.49 
-22.63 -4.54 -59.11 -24.48 -4.54 -58.60 -26.26 -4.54 -57.94 
-27.95 -4.54 -57.11 -29.52 -4.54 -56.09 -30.96 -4.54 -54.87 
-32.23 -4.54 -53.44 -33.35 -4.54 -51.81 -34.30 -4.54 -49.99 
-35.09 -4.54 -47.99 -35.73 -4.54 -45.83 -36.23 -4.54 -43.55 
-36.61 -4.54 -41.15 -36.90 -4.54 -38.67 -37.10 -4.54 -36.12 
-37.25 -4.54 -33.52 -37.34 -4.54 -30.88 -37.41 -4.54 -28.21 
-37.45 -4.54 -25.52 -37.47 -4.54 -22.82 -37.48 -4.54 -20.09 
-37.49 -4.54 -17.36 -37.50 -4.54 -14.61 -37.50 -4.54 -11.86 
-37.50 -4.54 -9.10 -37.50 -4.54 -6.33 -37.50 -4.54 -3.56 
-37.50 -4.54 -0.79 -37.50 -4.54 1.98 -37.50 -4.54 4.75 
-37.50 -4.54 7.51 -37.50 -4.54 10.26 -37.50 -4.54 13.01 
-37.50 -4.54 15.74 -37.50 -4.54 18.46 -37.50 -4.54 21.17 
-37.50 -4.54 23.86 -37.50 -4.54 26.53 -37.50 -4.54 29.19 
-37.50 -4.54 31.84 -37.50 -4.54 34.46 -37.50 -4.54 37.08 
-37.50 -4.54 39.67 -37.50 -4.54 42.26 -37.50 -4.54 44.83 
-37.50 -4.54 47.40 -37.50 -4.54 49.95 -37.50 -4.54 52.51 
-37.50 -4.54 55.06 -37.50 -4.54 57.61 -37.50 -4.54 60.17 
-37.50 -4.54 62.73 -37.50 -4.54 65.31 -37.50 -4.54 67.90 
-37.50 -4.54 70.50 -37.50 -4.54 73.13 -37.50 -4.54 75.77 
-37.50 -4.54 78.43 -37.50 -4.54 81.11 -37.50 -4.54 83.82 
-37.50 -4.54 86.54 -37.50 -4.54 89.29 -37.50 -4.54 92.06 
-37.50 -4.54 94.84 -37.50 -4.54 97.64 -37.50 -4.54 100.45 
-37.50 -4.54 103.27 -37.50 -4.54 106.10 -37.50 -4.54 108.94 
-37.50 -4.54 111.78 -37.50 -4.54 114.62 -37.50 -4.54 117.46 
-37.50 -4.54 120.29 -37.51 -4.54 123.12 -37.51 -4.54 125.94 
-37.53 -4.54 128.75 -37.55 -4.54 131.54 -37.58 -4.54 134.31 
-37.63 -4.54 137.05 -37.72 -4.54 139.77 -37.84 -4.54 142.44 
-38.03 -4.54 145.06 -38.29 -4.54 147.61 -38.64 -4.54 150.07 
-39.12 -4.54 152.43 -39.74 -4.54 154.66 -40.51 -4.54 156.75 
-41.47 -4.54 158.66 -42.61 -4.54 160.39 -43.95 -4.54 161.92 
-45.48 -4.54 163.25 -47.18 -4.54 164.38 -49.06 -4.54 165.31 
-51.08 -4.54 166.07 -53.23 -4.54 166.66 -55.48 -4.54 167.11 
-57.82 -4.54 167.44 -60.22 -4.54 167.69 -62.67 -4.54 167.85 
-65.17 -4.54 167.97 -67.69 -4.54 168.04 -70.24 -4.54 168.09 
-72.81 -4.54 168.12 -75.39 -4.54 168.14 -77.99 -4.54 168.15 
-80.60 -4.54 168.15 -83.21 -4.54 168.16 -85.84 -4.54 168.16 
-88.48 -4.54 168.16 -91.12 -4.54 168.16 -93.77 -4.54 168.16 
-96.42 -4.54 168.16 -99.07 -4.54 168.16 -101.73 -4.54 168.16 
-104.39 -4.54 168.16 -107.06 -4.54 168.16 -109.72 -4.54 168.16 
-112.39 -4.54 168.16 -115.05 -4.54 168.16 -117.72 -4.54 168.16 
-120.39 -4.54 168.16 -123.06 -4.54 168.16 -125.73 -4.54 168.16 
-128.41 -4.54 168.16 -131.09 -4.54 168.16 -133.78 -4.54 168.16 
-136.48 -4.54 168.16 -139.19 -4.54 168.16 -141.92 -4.54 168.16 
-144.68 -4.54 168.16 -147.46 -4.54 168.16 -150.27 -4.54 168.16 
-153.10 -4.54 168.16 -155.96 -4.54 168.16 -158.83 -4.54 168.16 
-161.73 -4.54 168.16 -164.63 -4.54 168.16 -167.52 -4.54 168.16 
-170.41 -4.54 168.16 -173.29 -4.54 168.16 -176.15 -4.54 168.16 
-178.99 -4.54 168.16 -181.81 -4.54 168.16 -184.61 -4.54 168.16 
-187.39 -4.54 168.16 -190.15 -4.54 168.16 -192.91 -4.54 168.16 
-195.65 -4.54 168.16 -198.40 -4.54 168.16 -201.13 -4.54 168.16 
-203.87 -4.54 168.16 -206.60 -4.54 168.16 -209.34 -4.54 168.16 
-212.07 -4.54 168.16 -214.79 -4.54 168.16 -217.52 -4.54 168.16 
-220.24 -4.54 168.16 -222.96 -4.54 168.16 -225.67 -4.54 168.16 
-228.38 -4.54 168.16 -231.07 -4.54 168.16 -233.76 -4.54 168.16 
-236.43 -4.54 168.15 -239.09 -4.54 168.15 -241.73 -4.54 168.14 
-244.35 -4.54 168.12 -246.95 -4.54 168.09 -249.52 -4.54 168.05 
-252.05 -4.54 167.98 -254.54 -4.54 167.88 -256.96 -4.54 167.74 
-259.31 -4.54 167.53 -261.56 -4.54 167.25 -263.70 -4.54 166.87 
-265.71 -4.54 166.38 -267.57 -4.54 165.75 -269.26 -4.54 164.97 
-270.78 -4.54 164.03 -272.11 -4.54 162.92 -273.26 -4.54 161.63 
-274.23 -4.54 160.16 -275.03 -4.54 158.52 -275.68 -4.54 156.72 
-276.18 -4.54 154.77 -276.57 -4.54 152.69 -276.86 -4.54 150.50 
-277.07 -4.54 148.21 -277.22 -4.54 145.84 -277.32 -4.54 143.40 
-277.39 -4.54 140.91 -277.43 -4.54 138.38 -277.46 -4.54 135.81 
-277.48 -4.54 133.21 -277.49 -4.54 130.59 -277.49 -4.54 127.95 
-277.50 -4.54 125.30 -277.50 -4.54 122.64 -277.50 -4.54 119.97 
-277.50 -4.54 117.30 -277.50 -4.54 114.63 -277.50 -4.54 111.96 
-277.50 -4.54 109.28 -277.50 -4.54 106.62 -277.50 -4.54 103.95 
-277.50 -4.54 101.29 -277.50 -4.54 98.63 -277.50 -4.54 95.98 
-277.50 -4.54 93.33 -277.50 -4.54 90.69 -277.50 -4.54 88.05 
-277.50 -4.54 85.42 -277.50 -4.54 82.78 -277.50 -4.54 80.15 
-277.50 -4.54 77.52 -277.50 -4.54 74.89 -277.50 -4.54 72.26 
-277.50 -4.54 69.63 -277.50 -4.54 67.00 -277.50 -4.54 64.36 
-277.50 -4.54 61.72 -277.50 -4.54 59.08 -277.50 -4.54 56.44 
-277.50 -4.54 53.79 -277.50 -4.54 51.14 -277.50 -4.54 48.49 
-277.50 -4.54 45.83 -277.50 -4.54 43.17 -277.50 -4.54 40.51 
-277.50 -4.54 37.84 -277.50 -4.54 35.17 -277.50 -4.54 32.50 
-277.50 -4.54 29.82 -277.50 -4.54 27.14 -277.50 -4.54 24.46 
-277.50 -4.54 21.78 -277.50 -4.54 19.09 -277.50 -4.54 16.40 
-277.50 -4.54 13.71 -277.50 -4.54 11.02 -277.50 -4.54 8.33 
-277.50 -4.54 5.63 -277.50 -4.54 2.94 -277.50 -4.54 0.24 
-277.50 -4.54 -2.46 -277.50 -4.54 -5.16 -277.50 -4.54 -7.86 
-277.50 -4.54 -10.55 -277.50 -4.54 -13.25 -277.50 -4.54 -15.95 
-277.51 -4.54 -18.64 -277.51 -4.54 -21.33 -277.53 -4.54 -24.01 
-277.55 -4.54 -26.69 -277.58 -4.54 -29.34 -277.62 -4.54 -31.98 
-277.70 -4.54 -34.58 -277.80 -4.54 -37.14 -277.96 -4.54 -39.63 
-278.17 -4.54 -42.05 -278.47 -4.54 -44.37 -278.85 -4.54 -46.57 
-279.35 -4.54 -48.63 -279.97 -4.54 -50.52 -280.74 -4.54 -52.24 
-281.66 -4.54 -53.77 -282.74 -4.54 -55.11 -283.97 -4.54 -56.26 
-285.36 -4.54 -57.21 -286.89 -4.54 -58.00 -288.54 -4.54 -58.62 
-290.29 -4.54 -59.11 -292.13 -4.54 -59.48 -294.02 -4.54 -59.75 
-295.94 -4.54 -59.94 -297.86 -4.54 -60.08 -299.74 -4.54 -60.17 
-301.52 -4.54 -60.23 -303.14 -4.54 -60.27 -7.23 -4.54 -60.31 
-307.85 -4.54 -60.32 
LINES 1 287
286 285 283 282 281 280 279 278 277 276 275 274 273 272 271 270 269 268 267 266 265 264 263 262 261 260 259 258 257 256 255 254 253 252 251 250 249 248 247 246 245 244 243 242 241 240 239 238 237 236 235 234 233 232 231 230 229 228 227 226 225 224 223 222 221 220 219 218 217 216 215 214 213 212 211 210 209 208 207 206 205 204 203 202 201 200 199 198 197 196 195 194 193 192 191 190 189 188 187 186 185 184 183 182 181 180 179 178 177 176 175 174 173 172 171 170 169 168 167 166 165 164 163 162 161 160 159 158 157 156 155 154 153 152 151 150 149 148 147 146 145 144 143 142 141 140 139 138 137 136 135 134 133 132 131 130 129 128 127 126 125 124 123 122 121 120 119 118 117 116 115 114 113 112 111 110 109 108 107 106 105 104 103 102 101 100 99 98 97 96 95 94 93 92 91 90 89 88 87 86 85 84 83 82 81 80 79 78 77 76 75 74 73 72 71 70 69 68 67 66 65 64 63 62 61 60 59 58 57 56 55 54 53 52 51 50 49 48 47 46 45 44 43 42 41 40 39 38 37 36 35 34 33 32 31 30 29 28 27 26 25 24 23 22 21 20 19 18 17 16 15 14 13 12 11 10 9 8 7 6 5 4 3 2 1 0 284 
POINT_DATA 286
FIELD FieldData 1
MaximumInscribedSphereRadius 1 286 double
1.50 1.50 1.50 1.50 1.50 1.50 1.51 1.51 1.51 
1.52 1.52 1.53 1.53 1.53 1.53 1.53 1.53 1.53 
1.53 1.52 1.52 1.51 1.51 1.51 1.51 1.50 1.50 
1.50 1.50 1.50 1.50 1.50 1.50 1.50 1.50 1.50 
1.50 1.50 1.50 1.50 1.50 1.50 1.50 1.50 1.50 
1.50 1.50 1.50 1.50 1.50 1.50 1.50 1.50 1.50 
1.50 1.50 1.50 1.50 1.50 1.50 1.50 1.50 1.50 
1.50 1.50 1.50 1.50 1.50 1.50 1.50 1.50 1.50 
1.50 1.50 1.50 1.50 1.50 1.50 1.50 1.50 1.50 
1.50 1.50 1.50 1.50 1.51 1.51 1.51 1.52 1.52 
1.53 1.53 1.54 1.55 1.55 1.55 1.55 1.55 1.55 
1.54 1.54 1.53 1.53 1.52 1.52 1.51 1.51 1.51 
1.50 1.50 1.50 1.50 1.50 1.50 1.50 1.50 1.50 
1.50 1.50 1.50 1.50 1.50 1.50 1.50 1.50 1.50 
1.50 1.50 1.50 1.50 1.50 1.50 1.50 1.50 1.50 
1.50 1.50 1.50 1.50 1.50 1.50 1.50 1.50 1.50 
1.50 1.50 1.50 1.50 1.50 1.50 1.50 1.50 1.50 
1.50 1.50 1.50 1.50 1.50 1.50 1.50 1.50 1.50 
1.50 1.50 1.50 1.50 1.50 1.50 1.50 1.50 1.50 
1.50 1.50 1.50 1.50 1.49 1.49 1.49 1.49 1.49 
1.48 1.48 1.48 1.48 1.48 1.48 1.48 1.48 1.48 
1.49 1.49 1.49 1.49 1.49 1.50 1.50 1.50 1.50 
1.50 1.50 1.50 1.50 1.50 1.50 1.50 1.50 1.50 
1.50 1.50 1.50 1.50 1.50 1.50 1.50 1.50 1.50 
1.50 1.50 1.50 1.50 1.50 1.50 1.50 1.50 1.50 
1.50 1.50 1.50 1.50 1.50 1.50 1.50 1.50 1.50 
1.50 1.50 1.50 1.50 1.50 1.50 1.50 1.50 1.50 
1.50 1.50 1.50 1.50 1.50 1.50 1.50 1.50 1.50 
1.50 1.50 1.50 1.50 1.50 1.50 1.50 1.50 1.50 
1.50 1.49 1.49 1.49 1.49 1.48 1.48 1.48 1.48 
1.48 1.48 1.48 1.48 1.48 1.48 1.48 1.49 1.49 
1.49 1.49 1.49 1.49 1.49 1.50 1.49 
