# vtk DataFile Version 3.0
vtk output
ASCII
DATASET POLYDATA
POINTS 18 float
1314.46 -207.65 1247.43 1318.39 -209.35 1245.23 1326.33 -211.51 1241.78 
1340.72 -214.15 1236.49 1364.19 -217.26 1228.74 1398.52 -220.81 1218.09 
1443.61 -224.70 1204.60 1496.73 -228.70 1188.99 1552.86 -232.56 1172.59 
1606.10 -236.00 1156.94 1651.47 -238.83 1143.39 1686.26 -240.97 1132.65 
1710.37 -242.48 1124.80 1725.57 -243.47 1119.45 1734.36 -244.09 1115.98 
1739.13 -244.46 1113.80 1311.74 -204.16 1250.68 1744.04 -244.92 1110.82 

LINES 1 19
18 17 15 14 13 12 11 10 9 8 7 6 5 4 3 2 1 0 16 
POINT_DATA 18
FIELD FieldData 1
MaximumInscribedSphereRadius 1 18 double
21.56 22.06 22.62 23.36 24.45 26.02 28.13 30.64 33.26 
35.63 37.40 38.38 38.57 38.10 37.21 36.12 21.09 35.05 

