# vtk DataFile Version 3.0
vtk output
ASCII
DATASET POLYDATA
POINTS 12 float
3267.67 -444.06 -31.59 3263.66 -444.04 -31.41 3258.55 -444.04 -31.24 
3252.47 -444.05 -31.12 3245.77 -444.08 -31.04 3238.87 -444.12 -30.99 
3232.26 -444.16 -30.98 3226.35 -444.20 -30.98 3221.37 -444.22 -30.99 
3217.43 -444.24 -31.00 3275.32 -444.14 -32.31 3209.18 -444.26 -31.03 

LINES 1 13
12 11 9 8 7 6 5 4 3 2 1 0 10 
POINT_DATA 12
FIELD FieldData 1
MaximumInscribedSphereRadius 1 12 double
35.22 35.14 35.01 34.81 34.53 34.18 33.77 33.33 32.91 
32.55 35.25 32.26 
