# vtk DataFile Version 3.0
vtk output
ASCII
DATASET POLYDATA
POINTS 1248 float
-193.11 -6.63 -321.08 -191.79 -6.61 -321.08 -190.33 -6.59 -321.08 
-188.78 -6.57 -321.08 -187.17 -6.56 -321.08 -185.54 -6.55 -321.08 
-183.87 -6.54 -321.08 -182.20 -6.54 -321.08 -180.51 -6.54 -321.08 
-178.80 -6.54 -321.09 -177.09 -6.54 -321.09 -175.37 -6.54 -321.09 
-173.65 -6.54 -321.09 -171.92 -6.54 -321.09 -170.18 -6.54 -321.09 
-168.44 -6.54 -321.09 -166.69 -6.54 -321.09 -164.93 -6.54 -321.09 
-163.17 -6.54 -321.09 -161.40 -6.54 -321.09 -159.62 -6.54 -321.09 
-157.84 -6.54 -321.09 -156.05 -6.54 -321.09 -154.26 -6.54 -321.09 
-152.47 -6.54 -321.09 -150.67 -6.54 -321.09 -148.88 -6.54 -321.09 
-147.08 -6.54 -321.09 -145.29 -6.54 -321.09 -143.50 -6.54 -321.09 
-141.72 -6.54 -321.09 -139.94 -6.54 -321.09 -138.17 -6.54 -321.09 
-136.41 -6.54 -321.09 -134.66 -6.54 -321.09 -132.91 -6.54 -321.09 
-131.18 -6.54 -321.09 -129.45 -6.54 -321.09 -127.74 -6.54 -321.09 
-126.03 -6.54 -321.09 -124.33 -6.54 -321.09 -122.63 -6.54 -321.09 
-120.94 -6.54 -321.09 -119.26 -6.54 -321.09 -117.59 -6.54 -321.09 
-115.91 -6.54 -321.09 -114.25 -6.54 -321.09 -112.58 -6.54 -321.09 
-110.92 -6.54 -321.09 -109.26 -6.54 -321.09 -107.60 -6.54 -321.09 
-105.95 -6.54 -321.09 -104.29 -6.54 -321.09 -102.64 -6.54 -321.09 
-100.99 -6.54 -321.09 -99.34 -6.54 -321.09 -97.69 -6.54 -321.09 
-96.05 -6.54 -321.09 -94.40 -6.54 -321.09 -92.76 -6.54 -321.09 
-91.12 -6.54 -321.09 -89.48 -6.54 -321.09 -87.85 -6.54 -321.09 
-86.22 -6.54 -321.09 -84.58 -6.54 -321.09 -82.95 -6.54 -321.09 
-81.32 -6.54 -321.09 -79.69 -6.54 -321.09 -78.06 -6.54 -321.09 
-76.43 -6.54 -321.09 -74.80 -6.54 -321.09 -73.16 -6.54 -321.09 
-71.52 -6.54 -321.09 -69.88 -6.54 -321.09 -68.23 -6.54 -321.09 
-66.57 -6.54 -321.08 -64.92 -6.54 -321.08 -63.25 -6.54 -321.07 
-61.59 -6.54 -321.06 -59.91 -6.54 -321.05 -58.24 -6.54 -321.03 
-56.56 -6.54 -321.00 -54.89 -6.54 -320.95 -53.21 -6.54 -320.90 
-51.54 -6.54 -320.82 -49.86 -6.54 -320.73 -48.20 -6.54 -320.60 
-46.54 -6.54 -320.45 -44.88 -6.54 -320.26 -43.24 -6.54 -320.04 
-41.61 -6.54 -319.78 -39.99 -6.54 -319.47 -38.39 -6.54 -319.12 
-36.80 -6.54 -318.71 -35.23 -6.54 -318.26 -33.67 -6.54 -317.76 
-32.14 -6.54 -317.21 -30.63 -6.54 -316.61 -29.14 -6.54 -315.95 
-27.68 -6.54 -315.25 -26.24 -6.54 -314.49 -24.82 -6.54 -313.68 
-23.44 -6.54 -312.83 -22.08 -6.54 -311.92 -20.75 -6.54 -310.96 
-19.46 -6.54 -309.96 -18.20 -6.54 -308.91 -16.97 -6.54 -307.81 
-15.78 -6.54 -306.68 -14.63 -6.54 -305.50 -13.52 -6.54 -304.27 
-12.46 -6.54 -303.01 -11.44 -6.54 -301.71 -10.46 -6.54 -300.37 
-9.53 -6.54 -299.00 -8.64 -6.54 -297.60 -7.81 -6.54 -296.16 
-7.03 -6.54 -294.68 -6.30 -6.54 -293.18 -5.62 -6.54 -291.66 
-4.99 -6.54 -290.10 -4.42 -6.54 -288.52 -3.91 -6.54 -286.92 
-3.45 -6.54 -285.30 -3.05 -6.54 -283.66 -2.71 -6.54 -282.01 
-2.43 -6.54 -280.35 -2.21 -6.54 -278.68 -2.04 -6.54 -277.00 
-1.94 -6.54 -275.32 -1.89 -6.54 -273.64 -1.91 -6.54 -271.97 
-1.98 -6.54 -270.30 -2.12 -6.54 -268.64 -2.31 -6.54 -266.99 
-2.55 -6.54 -265.36 -2.86 -6.54 -263.74 -3.22 -6.54 -262.13 
-3.63 -6.54 -260.55 -4.10 -6.54 -258.98 -4.63 -6.54 -257.44 
-5.20 -6.54 -255.92 -5.83 -6.54 -254.42 -6.51 -6.54 -252.94 
-7.25 -6.54 -251.49 -8.04 -6.54 -250.06 -8.88 -6.54 -248.66 
-9.77 -6.54 -247.28 -10.71 -6.54 -245.93 -11.70 -6.54 -244.62 
-12.74 -6.54 -243.33 -13.83 -6.54 -242.08 -14.97 -6.54 -240.86 
-16.15 -6.54 -239.68 -17.38 -6.54 -238.54 -18.65 -6.54 -237.44 
-19.97 -6.54 -236.38 -21.32 -6.54 -235.37 -22.71 -6.54 -234.40 
-24.13 -6.54 -233.49 -25.58 -6.54 -232.62 -27.07 -6.54 -231.81 
-28.58 -6.54 -231.05 -30.11 -6.54 -230.35 -31.67 -6.54 -229.71 
-33.25 -6.54 -229.11 -34.84 -6.54 -228.58 -36.45 -6.54 -228.10 
-38.07 -6.54 -227.67 -39.69 -6.54 -227.30 -41.33 -6.54 -226.97 
-42.97 -6.54 -226.69 -44.61 -6.54 -226.45 -46.26 -6.54 -226.26 
-47.91 -6.54 -226.10 -49.55 -6.54 -225.97 -51.19 -6.54 -225.87 
-52.83 -6.54 -225.79 -54.47 -6.54 -225.73 -56.10 -6.54 -225.69 
-57.72 -6.54 -225.66 -59.34 -6.54 -225.63 -60.96 -6.54 -225.62 
-62.56 -6.54 -225.61 -64.17 -6.54 -225.60 -65.76 -6.54 -225.60 
-67.36 -6.54 -225.59 -68.95 -6.54 -225.59 -70.53 -6.54 -225.59 
-72.12 -6.54 -225.59 -73.70 -6.54 -225.59 -75.28 -6.54 -225.59 
-76.86 -6.54 -225.59 -78.45 -6.54 -225.59 -80.03 -6.54 -225.59 
-81.62 -6.54 -225.59 -83.21 -6.54 -225.59 -84.80 -6.54 -225.59 
-86.39 -6.54 -225.59 -87.99 -6.54 -225.59 -89.60 -6.54 -225.59 
-91.20 -6.54 -225.59 -92.82 -6.54 -225.59 -94.43 -6.54 -225.59 
-96.06 -6.54 -225.59 -97.68 -6.54 -225.59 -99.32 -6.54 -225.59 
-100.95 -6.54 -225.59 -102.60 -6.54 -225.59 -104.24 -6.54 -225.59 
-105.90 -6.54 -225.59 -107.55 -6.54 -225.59 -109.21 -6.54 -225.59 
-110.88 -6.54 -225.59 -112.55 -6.54 -225.59 -114.22 -6.54 -225.59 
-115.90 -6.54 -225.59 -117.58 -6.54 -225.59 -119.26 -6.54 -225.59 
-120.94 -6.54 -225.59 -122.62 -6.54 -225.59 -124.31 -6.54 -225.59 
-125.99 -6.54 -225.59 -127.67 -6.54 -225.59 -129.35 -6.54 -225.59 
-131.03 -6.54 -225.59 -132.71 -6.54 -225.59 -134.38 -6.54 -225.59 
-136.05 -6.54 -225.59 -137.72 -6.54 -225.59 -139.38 -6.54 -225.59 
-141.05 -6.54 -225.59 -142.71 -6.54 -225.59 -144.36 -6.54 -225.59 
-146.02 -6.54 -225.59 -147.67 -6.54 -225.59 -149.32 -6.54 -225.59 
-150.97 -6.54 -225.59 -152.62 -6.54 -225.59 -154.26 -6.54 -225.59 
-155.91 -6.54 -225.59 -157.55 -6.54 -225.59 -159.19 -6.54 -225.59 
-160.83 -6.54 -225.59 -162.47 -6.54 -225.59 -164.10 -6.54 -225.59 
-165.73 -6.54 -225.59 -167.36 -6.54 -225.59 -168.98 -6.54 -225.59 
-170.61 -6.54 -225.59 -172.22 -6.54 -225.59 -173.84 -6.54 -225.59 
-175.45 -6.54 -225.59 -177.06 -6.54 -225.59 -178.66 -6.54 -225.59 
-180.26 -6.54 -225.59 -181.86 -6.54 -225.59 -183.45 -6.54 -225.59 
-185.04 -6.54 -225.59 -186.62 -6.54 -225.59 -188.20 -6.54 -225.59 
-189.78 -6.54 -225.59 -191.36 -6.54 -225.59 -192.93 -6.54 -225.59 
-194.50 -6.54 -225.59 -196.08 -6.54 -225.59 -197.65 -6.54 -225.59 
-199.22 -6.54 -225.59 -200.79 -6.54 -225.59 -202.36 -6.54 -225.59 
-203.93 -6.54 -225.59 -205.51 -6.54 -225.59 -207.09 -6.54 -225.59 
-208.67 -6.54 -225.59 -210.25 -6.54 -225.59 -211.84 -6.54 -225.59 
-213.43 -6.54 -225.59 -215.03 -6.54 -225.59 -216.63 -6.54 -225.59 
-218.23 -6.54 -225.59 -219.83 -6.54 -225.59 -221.44 -6.54 -225.59 
-223.05 -6.54 -225.59 -224.67 -6.54 -225.59 -226.29 -6.54 -225.59 
-227.91 -6.54 -225.59 -229.53 -6.54 -225.59 -231.16 -6.54 -225.59 
-232.78 -6.54 -225.59 -234.41 -6.54 -225.59 -236.04 -6.54 -225.59 
-237.67 -6.54 -225.59 -239.30 -6.54 -225.59 -240.93 -6.54 -225.59 
-242.56 -6.54 -225.59 -244.19 -6.54 -225.59 -245.83 -6.54 -225.59 
-247.46 -6.54 -225.59 -249.09 -6.54 -225.59 -250.72 -6.54 -225.59 
-252.35 -6.54 -225.59 -253.98 -6.54 -225.59 -255.61 -6.54 -225.59 
-257.24 -6.54 -225.59 -258.87 -6.54 -225.59 -260.51 -6.54 -225.58 
-262.14 -6.54 -225.58 -263.78 -6.54 -225.57 -265.41 -6.54 -225.56 
-267.05 -6.54 -225.54 -268.69 -6.54 -225.51 -270.34 -6.54 -225.47 
-271.98 -6.54 -225.42 -273.62 -6.54 -225.35 -275.27 -6.54 -225.26 
-276.91 -6.54 -225.15 -278.55 -6.54 -225.00 -280.19 -6.54 -224.82 
-281.82 -6.54 -224.60 -283.45 -6.54 -224.34 -285.07 -6.54 -224.03 
-286.68 -6.54 -223.67 -288.28 -6.54 -223.26 -289.86 -6.54 -222.80 
-291.42 -6.54 -222.28 -292.97 -6.54 -221.70 -294.50 -6.54 -221.06 
-296.00 -6.54 -220.37 -297.47 -6.54 -219.62 -298.92 -6.54 -218.81 
-300.34 -6.54 -217.94 -301.72 -6.54 -217.02 -303.07 -6.54 -216.05 
-304.38 -6.54 -215.02 -305.65 -6.54 -213.93 -306.88 -6.54 -212.80 
-308.07 -6.54 -211.62 -309.21 -6.54 -210.40 -310.30 -6.54 -209.13 
-311.35 -6.54 -207.81 -312.34 -6.54 -206.46 -313.28 -6.54 -205.07 
-314.17 -6.54 -203.65 -314.99 -6.54 -202.19 -315.77 -6.54 -200.70 
-316.48 -6.54 -199.19 -317.13 -6.54 -197.65 -317.72 -6.54 -196.10 
-318.25 -6.54 -194.52 -318.71 -6.54 -192.93 -319.11 -6.54 -191.33 
-319.45 -6.54 -189.72 -319.73 -6.54 -188.10 -319.94 -6.54 -186.48 
-320.09 -6.54 -184.87 -320.18 -6.54 -183.25 -320.21 -6.54 -181.64 
-320.18 -6.54 -180.03 -320.09 -6.54 -178.44 -319.94 -6.54 -176.85 
-319.74 -6.54 -175.28 -319.47 -6.54 -173.72 -319.15 -6.54 -172.18 
-318.78 -6.54 -170.66 -318.34 -6.54 -169.15 -317.86 -6.54 -167.67 
-317.32 -6.54 -166.21 -316.72 -6.54 -164.76 -316.08 -6.54 -163.35 
-315.38 -6.54 -161.95 -314.63 -6.54 -160.59 -313.82 -6.54 -159.25 
-312.97 -6.54 -157.93 -312.07 -6.54 -156.65 -311.12 -6.54 -155.40 
-310.12 -6.54 -154.18 -309.07 -6.54 -152.99 -307.97 -6.54 -151.84 
-306.83 -6.54 -150.72 -305.65 -6.54 -149.65 -304.42 -6.54 -148.62 
-303.15 -6.54 -147.63 -301.84 -6.54 -146.68 -300.49 -6.54 -145.79 
-299.11 -6.54 -144.94 -297.70 -6.54 -144.15 -296.25 -6.54 -143.40 
-294.78 -6.54 -142.71 -293.28 -6.54 -142.08 -291.76 -6.54 -141.50 
-290.21 -6.54 -140.98 -288.65 -6.54 -140.51 -287.07 -6.54 -140.09 
-285.47 -6.54 -139.72 -283.86 -6.54 -139.41 -282.23 -6.54 -139.14 
-280.59 -6.54 -138.91 -278.95 -6.54 -138.72 -277.29 -6.54 -138.57 
-275.62 -6.54 -138.45 -273.95 -6.54 -138.35 -272.28 -6.54 -138.28 
-270.60 -6.54 -138.22 -268.91 -6.54 -138.18 -267.23 -6.54 -138.15 
-265.54 -6.54 -138.13 -263.85 -6.54 -138.12 -262.16 -6.54 -138.11 
-260.47 -6.54 -138.10 -258.79 -6.54 -138.10 -257.10 -6.54 -138.09 
-255.42 -6.54 -138.09 -253.74 -6.54 -138.09 -252.06 -6.54 -138.09 
-250.39 -6.54 -138.09 -248.72 -6.54 -138.09 -247.05 -6.54 -138.09 
-245.38 -6.54 -138.09 -243.71 -6.54 -138.09 -242.05 -6.54 -138.09 
-240.38 -6.54 -138.09 -238.72 -6.54 -138.09 -237.05 -6.54 -138.09 
-235.39 -6.54 -138.09 -233.72 -6.54 -138.09 -232.06 -6.54 -138.09 
-230.39 -6.54 -138.09 -228.72 -6.54 -138.09 -227.05 -6.54 -138.09 
-225.38 -6.54 -138.09 -223.70 -6.54 -138.09 -222.03 -6.54 -138.09 
-220.36 -6.54 -138.09 -218.68 -6.54 -138.09 -217.01 -6.54 -138.09 
-215.33 -6.54 -138.09 -213.66 -6.54 -138.09 -211.98 -6.54 -138.09 
-210.31 -6.54 -138.09 -208.63 -6.54 -138.09 -206.95 -6.54 -138.09 
-205.28 -6.54 -138.09 -203.61 -6.54 -138.09 -201.93 -6.54 -138.09 
-200.26 -6.54 -138.09 -198.59 -6.54 -138.09 -196.92 -6.54 -138.09 
-195.25 -6.54 -138.09 -193.58 -6.54 -138.09 -191.91 -6.54 -138.09 
[...]
POINT_DATA 1248
FIELD FieldData 1
MaximumInscribedSphereRadius 1 1248 double
1.77 1.77 1.77 1.76 1.76 1.75 1.75 1.75 1.75 
1.75 1.75 1.75 1.75 1.75 1.75 1.75 1.75 1.75 
1.75 1.75 1.75 1.75 1.75 1.75 1.75 1.75 1.75 
1.75 1.75 1.75 1.75 1.75 1.75 1.75 1.75 1.75 
1.75 1.75 1.75 1.75 1.75 1.75 1.75 1.75 1.75 
1.75 1.75 1.75 1.75 1.75 1.75 1.75 1.75 1.75 
1.75 1.75 1.75 1.75 1.75 1.75 1.75 1.75 1.75 
1.75 1.75 1.75 1.75 1.75 1.75 1.75 1.75 1.75 
1.75 1.75 1.75 1.75 1.75 1.75 1.75 1.75 1.75 
1.75 1.75 1.75 1.75 1.75 1.74 1.74 1.74 1.74 
1.74 1.74 1.74 1.74 1.74 1.74 1.74 1.74 1.74 
1.74 1.74 1.74 1.74 1.74 1.74 1.74 1.74 1.74 
1.74 1.74 1.74 1.74 1.74 1.74 1.74 1.74 1.74 
1.74 1.74 1.74 1.74 1.74 1.74 1.74 1.74 1.74 
1.74 1.74 1.74 1.74 1.74 1.74 1.74 1.74 1.74 
1.74 1.74 1.74 1.74 1.74 1.74 1.74 1.74 1.74 
1.74 1.74 1.74 1.74 1.74 1.74 1.74 1.74 1.74 
1.74 1.74 1.74 1.74 1.74 1.74 1.74 1.74 1.74 
1.74 1.74 1.74 1.74 1.74 1.74 1.74 1.74 1.74 
1.74 1.74 1.74 1.74 1.75 1.75 1.75 1.75 1.75 
1.75 1.75 1.75 1.75 1.75 1.75 1.75 1.75 1.75 
1.75 1.75 1.75 1.75 1.75 1.75 1.75 1.75 1.75 
1.75 1.75 1.75 1.75 1.75 1.75 1.75 1.75 1.75 
1.75 1.75 1.75 1.75 1.75 1.75 1.75 1.75 1.75 
1.75 1.75 1.75 1.75 1.75 1.75 1.75 1.75 1.75 
1.75 1.75 1.75 1.75 1.75 1.75 1.75 1.75 1.75 
1.75 1.75 1.75 1.75 1.75 1.75 1.75 1.75 1.75 
1.75 1.75 1.75 1.75 1.75 1.75 1.75 1.75 1.75 
1.75 1.75 1.75 1.75 1.75 1.75 1.75 1.75 1.75 
1.75 1.75 1.75 1.75 1.75 1.75 1.75 1.75 1.75 
1.75 1.75 1.75 1.75 1.75 1.75 1.75 1.75 1.75 
1.75 1.75 1.75 1.75 1.75 1.75 1.75 1.75 1.75 
1.75 1.75 1.75 1.75 1.75 1.75 1.75 1.75 1.75 
1.75 1.75 1.75 1.75 1.75 1.75 1.75 1.75 1.75 
1.75 1.75 1.75 1.75 1.75 1.75 1.75 1.75 1.74 
1.74 1.74 1.74 1.74 1.74 1.74 1.74 1.74 1.74 
1.74 1.74 1.74 1.74 1.74 1.74 1.74 1.74 1.74 
1.74 1.74 1.74 1.74 1.74 1.74 1.74 1.74 1.74 
1.74 1.74 1.74 1.74 1.74 1.74 1.74 1.74 1.74 
1.74 1.74 1.74 1.74 1.74 1.74 1.74 1.74 1.74 
1.74 1.74 1.74 1.74 1.74 1.74 1.74 1.74 1.74 
1.74 1.74 1.74 1.74 1.74 1.74 1.74 1.74 1.74 
1.74 1.74 1.74 1.74 1.74 1.74 1.74 1.74 1.74 
1.74 1.74 1.74 1.74 1.74 1.74 1.74 1.74 1.74 
1.74 1.74 1.74 1.74 1.75 1.75 1.75 1.75 1.75 
1.75 1.75 1.75 1.75 1.75 1.75 1.75 1.75 1.75 
1.75 1.75 1.75 1.75 1.75 1.75 1.75 1.75 1.75 
1.75 1.75 1.75 1.75 1.75 1.75 1.75 1.75 1.75 
1.75 1.75 1.75 1.75 1.75 1.75 1.75 1.75 1.75 
1.75 1.75 1.75 1.75 1.75 1.75 1.75 1.75 1.75 
1.75 1.75 1.75 1.75 1.75 1.75 1.75 1.75 1.75 
1.75 1.75 1.75 1.75 1.75 1.75 1.75 1.75 1.75 
1.75 1.75 1.75 1.75 1.75 1.75 1.75 1.75 1.75 
1.75 1.75 1.75 1.75 1.75 1.75 1.75 1.75 1.75 
1.75 1.75 1.75 1.75 1.75 1.75 1.75 1.75 1.75 
1.75 1.75 1.75 1.75 1.75 1.75 1.75 1.75 1.75 
1.75 1.75 1.75 1.75 1.75 1.75 1.75 1.75 1.75 
1.75 1.75 1.75 1.75 1.75 1.75 1.75 1.75 1.75 
1.75 1.75 1.75 1.75 1.75 1.75 1.75 1.75 1.75 
1.75 1.75 1.75 1.74 1.74 1.74 1.74 1.74 1.74 
1.74 1.74 1.74 1.74 1.74 1.74 1.74 1.74 1.74 
1.74 1.74 1.74 1.74 1.74 1.74 1.74 1.74 1.74 
1.74 1.74 1.74 1.74 1.74 1.74 1.74 1.74 1.74 
1.74 1.74 1.74 1.74 1.74 1.74 1.74 1.74 1.74 
1.74 1.74 1.74 1.74 1.74 1.74 1.74 1.74 1.74 
1.74 1.74 1.74 1.74 1.74 1.74 1.74 1.74 1.74 
1.74 1.74 1.74 1.74 1.74 1.74 1.74 1.74 1.74 
1.74 1.74 1.74 1.74 1.74 1.74 1.74 1.74 1.74 
1.74 1.74 1.74 1.74 1.74 1.74 1.74 1.74 1.74 
1.74 1.74 1.74 1.74 1.74 1.75 1.75 1.75 1.75 
1.75 1.75 1.75 1.75 1.75 1.75 1.75 1.75 1.75 
1.75 1.75 1.75 1.75 1.75 1.75 1.75 1.75 1.75 
1.75 1.75 1.75 1.75 1.75 1.75 1.75 1.75 1.75 
1.75 1.75 1.75 1.75 1.75 1.75 1.75 1.75 1.75 
1.75 1.75 1.75 1.75 1.75 1.75 1.75 1.75 1.75 
1.75 1.75 1.75 1.75 1.75 1.75 1.75 1.75 1.75 
1.75 1.75 1.75 1.75 1.75 1.75 1.75 1.75 1.75 
1.75 1.75 1.75 1.75 1.75 1.75 1.75 1.75 1.75 
1.75 1.75 1.75 1.75 1.75 1.75 1.75 1.75 1.75 
1.75 1.75 1.75 1.75 1.75 1.75 1.75 1.75 1.75 
1.75 1.75 1.75 1.75 1.75 1.75 1.75 1.75 1.75 
1.75 1.75 1.75 1.75 1.75 1.75 1.75 1.75 1.75 
1.75 1.75 1.75 1.75 1.75 1.75 1.75 1.75 1.75 
1.75 1.75 1.75 1.75 1.75 1.75 1.75 1.75 1.75 
1.75 1.74 1.74 1.74 1.74 1.74 1.74 1.74 1.74 
1.74 1.74 1.74 1.74 1.74 1.74 1.74 1.74 1.74 
1.74 1.74 1.74 1.74 1.74 1.74 1.74 1.74 1.74 
1.74 1.74 1.74 1.74 1.74 1.74 1.74 1.74 1.74 
1.74 1.74 1.74 1.74 1.74 1.74 1.74 1.74 1.74 
1.74 1.74 1.74 1.74 1.74 1.74 1.74 1.74 1.74 
1.74 1.74 1.74 1.74 1.74 1.74 1.74 1.74 1.74 
1.74 1.74 1.74 1.74 1.74 1.74 1.74 1.74 1.74 
1.74 1.74 1.74 1.74 1.74 1.74 1.74 1.74 1.74 
1.74 1.74 1.74 1.74 1.74 1.74 1.75 1.75 1.75 
1.75 1.75 1.75 1.75 1.75 1.75 1.75 1.75 1.75 
1.75 1.75 1.75 1.75 1.75 1.75 1.75 1.75 1.75 
1.75 1.75 1.75 1.75 1.75 1.75 1.75 1.75 1.75 
1.75 1.75 1.75 1.75 1.75 1.75 1.75 1.75 1.75 
1.75 1.75 1.75 1.75 1.75 1.75 1.75 1.75 1.75 
1.75 1.75 1.75 1.75 1.75 1.75 1.75 1.75 1.75 
1.75 1.75 1.75 1.75 1.75 1.75 1.75 1.75 1.75 
1.75 1.75 1.75 1.75 1.75 1.75 1.75 1.75 1.75 
1.75 1.75 1.75 1.75 1.75 1.75 1.75 1.75 1.75 
1.75 1.75 1.75 1.75 1.75 1.75 1.75 1.75 1.75 
1.75 1.75 1.75 1.75 1.75 1.75 1.75 1.75 1.75 
1.75 1.75 1.75 1.75 1.75 1.75 1.75 1.75 1.75 
1.75 1.75 1.75 1.75 1.75 1.75 1.75 1.75 1.75 
1.75 1.75 1.75 1.75 1.75 1.75 1.75 1.75 1.75 
1.75 1.75 1.74 1.74 1.74 1.74 1.74 1.74 1.74 
1.74 1.74 1.74 1.74 1.74 1.74 1.74 1.74 1.74 
1.74 1.74 1.74 1.74 1.74 1.74 1.74 1.74 1.74 
1.74 1.74 1.74 1.74 1.74 1.74 1.74 1.74 1.74 
1.74 1.74 1.74 1.74 1.74 1.74 1.74 1.74 1.74 
1.74 1.74 1.74 1.74 1.74 1.74 1.74 1.74 1.74 
1.74 1.74 1.74 1.74 1.74 1.74 1.74 1.74 1.74 
1.74 1.74 1.74 1.74 1.74 1.74 1.74 1.74 1.74 
1.74 1.74 1.74 1.74 1.74 1.74 1.74 1.74 1.74 
1.74 1.74 1.74 1.74 1.74 1.74 1.74 1.74 1.74 
1.74 1.74 1.74 1.74 1.74 1.75 1.75 1.75 1.75 
1.75 1.75 1.75 1.75 1.75 1.75 1.75 1.75 1.75 
1.75 1.75 1.75 1.75 1.75 1.75 1.75 1.75 1.75 
1.75 1.75 1.75 1.75 1.75 1.75 1.75 1.75 1.75 
1.75 1.75 1.75 1.75 1.75 1.75 1.75 1.75 1.75 
1.75 1.75 1.75 1.75 1.75 1.75 1.75 1.75 1.75 
1.75 1.75 1.75 1.75 1.75 1.75 1.75 1.75 1.75 
1.75 1.75 1.75 1.75 1.75 1.75 1.75 1.75 1.75 
1.75 1.75 1.75 1.75 1.75 1.75 1.75 1.75 1.75 
1.75 1.75 1.75 1.75 1.75 1.75 1.75 1.75 1.75 
1.75 1.75 1.75 1.75 1.75 1.75 1.75 1.75 1.75 
1.75 1.75 1.75 1.75 1.75 1.75 1.75 1.75 1.75 
1.75 1.75 1.75 1.75 1.75 1.75 1.75 1.75 1.75 
1.75 1.75 1.75 1.75 1.75 1.75 1.75 1.75 1.75 
1.75 1.75 1.75 1.75 1.75 1.75 1.75 1.75 1.75 
1.75 1.75 1.75 1.75 1.75 1.75 1.75 1.75 1.75 
1.75 1.75 1.75 1.75 1.75 1.75 1.75 1.75 1.75 
1.75 1.75 1.75 1.75 1.75 1.75 1.75 1.75 1.76 
1.76 1.76 1.75 1.75 1.75 1.75 1.75 1.75 1.75 
1.75 1.75 1.75 1.75 1.75 1.75 1.75 1.75 1.75 
1.75 1.75 1.75 1.75 1.78 1.75 
