# vtk DataFile Version 3.0
vtk output
ASCII
DATASET POLYDATA
POINTS 16 float
2669.12 312.48 928.14 2669.76 312.14 928.64 2670.56 311.73 929.26 
2671.51 311.23 930.01 2672.61 310.66 930.86 2673.84 310.02 931.83 
2675.16 309.33 932.86 2676.51 308.62 933.92 2677.82 307.94 934.94 
2679.04 307.30 935.90 2680.13 306.74 936.75 2681.06 306.25 937.48 
2681.84 305.85 938.08 2682.46 305.52 938.57 2667.62 313.26 926.96 
2683.90 304.77 939.70 
LINES 1 17
16 15 13 12 11 10 9 8 7 6 5 4 3 2 1 0 14 
POINT_DATA 16
FIELD FieldData 1
MaximumInscribedSphereRadius 1 16 double
2.97 2.99 3.03 3.09 3.19 3.31 3.45 3.61 3.75 
3.87 3.96 4.03 4.06 4.08 2.96 4.09 
