# vtk DataFile Version 3.0
vtk output
ASCII
DATASET POLYDATA
POINTS 16 float
2670.79 244.77 810.66 2668.46 246.80 811.96 2665.60 249.51 813.30 
2662.22 253.05 814.52 2658.38 257.47 815.46 2654.22 262.70 815.98 
2649.98 268.47 816.03 2645.96 274.34 815.63 2642.44 279.84 814.91 
2639.62 284.56 814.00 2637.55 288.29 813.08 2636.16 291.03 812.24 
2635.32 292.92 811.55 2634.84 294.17 811.03 2676.21 240.58 807.02 
2634.36 296.18 810.15 
LINES 1 17
16 15 13 12 11 10 9 8 7 6 5 4 3 2 1 0 14 
POINT_DATA 16
FIELD FieldData 1
MaximumInscribedSphereRadius 1 16 double
33.95 33.82 33.52 32.95 32.00 30.56 28.58 26.06 23.08 
19.76 16.30 12.89 9.72 6.97 34.00 4.75 
