# vtk DataFile Version 3.0
vtk output
ASCII
DATASET POLYDATA
POINTS 1564 float
14.97 7.71 -533.94 18.01 7.77 -533.28 21.28 7.83 -532.41 
24.64 7.88 -531.30 27.96 7.92 -529.92 31.15 7.95 -528.24 
34.13 7.97 -526.24 36.85 7.99 -523.92 39.30 7.99 -521.27 
41.44 8.00 -518.31 43.28 8.00 -515.06 44.80 8.00 -511.54 
46.04 8.00 -507.81 47.02 8.00 -503.89 47.78 8.00 -499.82 
48.34 8.00 -495.64 48.75 8.00 -491.37 49.04 8.00 -487.05 
49.24 8.00 -482.69 49.37 8.00 -478.32 49.46 8.00 -473.93 
49.51 8.00 -469.54 49.54 8.00 -465.16 49.56 8.00 -460.79 
49.57 8.00 -456.43 49.58 8.00 -452.08 49.58 8.00 -447.75 
49.58 8.00 -443.43 49.58 8.00 -439.12 49.58 8.00 -434.82 
49.58 8.00 -430.53 49.58 8.00 -426.25 49.58 8.00 -421.98 
49.58 8.00 -417.72 49.58 8.00 -413.47 49.58 8.00 -409.22 
49.58 8.00 -404.98 49.58 8.00 -400.75 49.58 8.00 -396.52 
49.58 8.00 -392.29 49.58 8.00 -388.06 49.58 8.00 -383.84 
49.58 8.00 -379.62 49.58 8.00 -375.40 49.58 8.00 -371.19 
49.58 8.00 -366.97 49.58 8.00 -362.75 49.58 8.00 -358.53 
49.58 8.00 -354.32 49.58 8.00 -350.10 49.58 8.00 -345.88 
49.58 8.00 -341.66 49.58 8.00 -337.44 49.58 8.00 -333.22 
49.58 8.00 -328.99 49.58 8.00 -324.77 49.58 8.00 -320.55 
49.58 8.00 -316.32 49.58 8.00 -312.10 49.58 8.00 -307.87 
49.58 8.00 -303.65 49.58 8.00 -299.42 49.58 8.00 -295.20 
49.58 8.00 -290.98 49.58 8.00 -286.75 49.58 8.00 -282.53 
49.58 8.00 -278.31 49.58 8.00 -274.09 49.58 8.00 -269.87 
49.58 8.00 -265.65 49.58 8.00 -261.44 49.58 8.00 -257.22 
49.58 8.00 -253.01 49.58 8.00 -248.80 49.58 8.00 -244.58 
49.58 8.00 -240.37 49.58 8.00 -236.16 49.58 8.00 -231.95 
49.58 8.00 -227.75 49.58 8.00 -223.54 49.58 8.00 -219.33 
49.58 8.00 -215.11 49.58 8.00 -210.90 49.58 8.00 -206.69 
49.58 8.00 -202.47 49.58 8.00 -198.25 49.58 8.00 -194.03 
49.58 8.00 -189.80 49.58 8.00 -185.57 49.58 8.00 -181.33 
49.58 8.00 -177.10 49.58 8.00 -172.85 49.59 8.01 -168.61 
49.59 8.01 -164.36 49.59 8.01 -160.10 49.60 8.02 -155.84 
49.62 8.02 -151.58 49.64 8.03 -147.32 49.68 8.04 -143.05 
49.73 8.05 -138.78 49.81 8.06 -134.51 49.92 8.07 -130.24 
50.08 8.08 -125.97 50.29 8.09 -121.71 50.58 8.09 -117.45 
50.94 8.10 -113.21 51.41 8.11 -108.99 52.00 8.11 -104.80 
52.71 8.12 -100.65 53.57 8.13 -96.54 54.58 8.13 -92.49 
55.76 8.14 -88.50 57.11 8.15 -84.57 58.64 8.15 -80.73 
60.36 8.16 -76.97 62.25 8.16 -73.31 64.32 8.17 -69.75 
66.58 8.17 -66.30 69.00 8.17 -62.98 71.60 8.17 -59.78 
74.35 8.17 -56.72 77.26 8.17 -53.81 80.31 8.17 -51.06 
83.50 8.17 -48.47 86.81 8.18 -46.05 90.25 8.18 -43.80 
93.79 8.19 -41.74 97.43 8.19 -39.87 101.16 8.20 -38.19 
104.97 8.21 -36.71 108.85 8.21 -35.43 112.78 8.22 -34.35 
116.76 8.23 -33.48 120.78 8.24 -32.81 124.82 8.25 -32.35 
128.88 8.26 -32.11 132.94 8.26 -32.07 137.00 8.27 -32.25 
141.05 8.27 -32.63 145.07 8.27 -33.23 149.06 8.27 -34.03 
153.01 8.27 -35.04 156.90 8.26 -36.26 160.73 8.25 -37.67 
164.49 8.24 -39.29 168.16 8.23 -41.09 171.73 8.22 -43.09 
175.21 8.21 -45.28 178.56 8.21 -47.64 181.80 8.20 -50.18 
184.90 8.20 -52.89 187.86 8.19 -55.76 190.67 8.19 -58.79 
193.32 8.19 -61.98 195.81 8.19 -65.30 198.13 8.20 -68.76 
200.27 8.20 -72.35 202.23 8.20 -76.05 204.02 8.20 -79.86 
205.62 8.20 -83.77 207.03 8.21 -87.77 208.27 8.20 -91.85 
209.34 8.20 -96.00 210.25 8.20 -100.22 211.01 8.19 -104.49 
211.63 8.18 -108.81 212.13 8.17 -113.16 212.52 8.16 -117.55 
212.82 8.14 -121.97 213.05 8.13 -126.40 213.22 8.11 -130.85 
213.34 8.09 -135.31 213.42 8.08 -139.78 213.48 8.06 -144.26 
213.52 8.05 -148.73 213.54 8.04 -153.21 213.56 8.03 -157.68 
213.57 8.02 -162.16 213.58 8.01 -166.63 213.58 8.01 -171.11 
213.58 8.01 -175.58 213.58 8.00 -180.06 213.58 8.00 -184.54 
213.58 8.00 -189.02 213.58 8.01 -193.50 213.58 8.01 -197.98 
213.58 8.01 -202.46 213.58 8.02 -206.94 213.58 8.02 -211.42 
213.58 8.03 -215.89 213.58 8.04 -220.37 213.58 8.05 -224.85 
213.58 8.06 -229.32 213.58 8.08 -233.80 213.58 8.09 -238.28 
213.58 8.09 -242.77 213.58 8.10 -247.26 213.58 8.10 -251.75 
213.58 8.11 -256.25 213.58 8.10 -260.75 213.58 8.10 -265.25 
213.58 8.10 -269.76 213.58 8.09 -274.26 213.58 8.09 -278.75 
213.58 8.08 -283.25 213.58 8.08 -287.74 213.58 8.07 -292.22 
213.58 8.07 -296.70 213.58 8.06 -301.18 213.58 8.06 -305.65 
213.58 8.05 -310.12 213.58 8.04 -314.59 213.58 8.04 -319.04 
213.58 8.03 -323.50 213.58 8.03 -327.94 213.58 8.02 -332.38 
213.58 8.02 -336.81 213.58 8.01 -341.23 213.58 8.01 -345.65 
213.58 8.01 -350.05 213.58 8.02 -354.45 213.58 8.02 -358.85 
213.58 8.02 -363.23 213.58 8.03 -367.62 213.58 8.04 -372.00 
213.58 8.04 -376.38 213.58 8.05 -380.77 213.58 8.05 -385.15 
213.58 8.05 -389.54 213.58 8.05 -393.93 213.58 8.05 -398.33 
213.58 8.05 -402.74 213.58 8.04 -407.15 213.58 8.04 -411.56 
213.58 8.03 -415.98 213.58 8.02 -420.40 213.58 8.02 -424.83 
213.58 8.01 -429.26 213.58 8.01 -433.69 213.58 8.01 -438.13 
213.58 8.00 -442.58 213.58 8.00 -447.03 213.58 8.00 -451.49 
213.58 8.00 -455.96 213.58 8.00 -460.44 213.58 8.00 -464.93 
213.58 8.00 -469.44 213.58 8.00 -473.95 213.58 8.00 -478.48 
213.58 8.00 -483.03 213.59 8.00 -487.59 213.59 8.00 -492.16 
213.59 8.00 -496.75 213.60 8.01 -501.36 213.62 8.01 -505.98 
213.65 8.02 -510.62 213.69 8.02 -515.27 213.77 8.03 -519.93 
213.88 8.04 -524.59 214.05 8.04 -529.26 214.29 8.05 -533.92 
214.64 8.06 -538.56 215.11 8.07 -543.17 215.75 8.08 -547.73 
216.59 8.08 -552.21 217.66 8.09 -556.59 219.00 8.09 -560.82 
220.63 8.09 -564.87 222.58 8.08 -568.69 224.85 8.08 -572.24 
227.44 8.07 -575.46 230.35 8.06 -578.32 233.54 8.06 -580.76 
236.99 8.05 -582.75 240.64 8.04 -584.25 244.44 8.04 -585.24 
248.32 8.03 -585.71 252.22 8.03 -585.63 256.08 8.03 -585.03 
259.83 8.04 -583.91 263.40 8.04 -582.30 266.75 8.05 -580.22 
269.84 8.06 -577.71 272.63 8.07 -574.81 275.10 8.08 -571.56 
277.25 8.08 -568.02 279.08 8.09 -564.22 280.61 8.10 -560.22 
281.85 8.10 -556.04 282.84 8.10 -551.74 283.61 8.09 -547.34 
284.20 8.08 -542.87 284.63 8.07 -538.36 284.95 8.06 -533.83 
285.17 8.05 -529.29 285.32 8.04 -524.76 285.42 8.03 -520.24 
285.48 8.02 -515.74 285.52 8.02 -511.26 285.55 8.01 -506.80 
285.56 8.01 -502.36 285.57 8.01 -497.95 285.58 8.00 -493.55 
285.58 8.00 -489.18 285.58 8.00 -484.82 285.58 8.00 -480.47 
285.58 8.00 -476.14 285.58 8.00 -471.83 285.58 8.00 -467.52 
285.58 8.00 -463.22 285.58 8.00 -458.94 285.58 8.00 -454.66 
285.58 8.00 -450.39 285.58 8.00 -446.13 285.58 8.00 -441.88 
285.58 8.00 -437.63 285.58 8.00 -433.39 285.58 8.00 -429.15 
285.58 8.00 -424.92 285.58 8.00 -420.70 285.58 8.00 -416.48 
285.58 8.00 -412.26 285.58 8.00 -408.05 285.58 8.00 -403.85 
285.58 8.00 -399.65 285.58 8.00 -395.45 285.58 8.00 -391.26 
285.58 8.00 -387.07 285.58 8.00 -382.89 285.58 8.00 -378.71 
285.58 8.00 -374.53 285.58 8.00 -370.36 285.58 8.00 -366.19 
285.58 8.00 -362.02 285.58 8.00 -357.86 285.58 8.00 -353.69 
285.58 8.00 -349.53 285.58 8.00 -345.37 285.58 8.00 -341.21 
285.58 8.00 -337.05 285.58 8.00 -332.89 285.58 8.00 -328.73 
285.58 8.00 -324.57 285.58 8.00 -320.41 285.58 8.00 -316.25 
285.58 8.00 -312.09 285.58 8.00 -307.93 285.58 8.00 -303.76 
285.58 8.00 -299.60 285.58 8.00 -295.43 285.58 8.00 -291.26 
285.58 8.00 -287.08 285.58 8.00 -282.90 285.58 8.00 -278.73 
285.58 8.00 -274.54 285.58 8.00 -270.36 285.58 8.00 -266.17 
285.58 8.00 -261.98 285.58 8.00 -257.79 285.58 8.00 -253.59 
285.58 8.00 -249.40 285.58 8.00 -245.19 285.58 8.00 -240.99 
285.58 8.00 -236.79 285.58 8.00 -232.58 285.58 8.00 -228.37 
285.58 8.00 -224.16 285.58 8.00 -219.95 285.58 8.00 -215.73 
285.58 8.00 -211.52 285.58 8.00 -207.30 285.58 8.00 -203.08 
285.58 8.00 -198.87 285.58 8.00 -194.65 285.58 8.00 -190.43 
285.58 8.00 -186.21 285.58 8.01 -181.99 285.58 8.01 -177.78 
285.58 8.01 -173.57 285.58 8.02 -169.36 285.59 8.03 -165.15 
285.59 8.04 -160.95 285.60 8.05 -156.75 285.61 8.06 -152.56 
285.63 8.08 -148.37 285.65 8.10 -144.19 285.70 8.12 -140.01 
285.76 8.14 -135.83 285.85 8.16 -131.66 285.98 8.18 -127.49 
286.17 8.19 -123.32 286.41 8.21 -119.16 286.73 8.22 -115.02 
287.14 8.23 -110.88 287.66 8.24 -106.76 288.31 8.24 -102.66 
289.09 8.24 -98.59 290.02 8.24 -94.56 291.11 8.24 -90.57 
292.38 8.23 -86.63 293.82 8.22 -82.76 295.44 8.21 -78.96 
297.24 8.20 -75.24 299.23 8.19 -71.62 301.40 8.18 -68.10 
303.75 8.17 -64.69 306.27 8.16 -61.42 308.96 8.16 -58.27 
311.81 8.16 -55.27 314.81 8.16 -52.42 317.95 8.16 -49.74 
321.22 8.16 -47.22 324.62 8.17 -44.87 328.13 8.17 -42.71 
331.74 8.18 -40.74 335.44 8.19 -38.96 339.22 8.20 -37.38 
343.07 8.20 -36.00 346.99 8.21 -34.82 350.95 8.21 -33.85 
354.96 8.22 -33.09 358.99 8.22 -32.54 363.05 8.22 -32.20 
367.12 8.21 -32.07 371.19 8.21 -32.15 375.26 8.20 -32.45 
379.30 8.19 -32.95 383.32 8.18 -33.66 387.29 8.17 -34.58 
391.22 8.17 -35.71 395.08 8.16 -37.03 398.87 8.15 -38.56 
402.58 8.15 -40.28 406.19 8.15 -42.19 409.71 8.15 -44.29 
413.12 8.15 -46.58 416.40 8.15 -49.04 419.56 8.15 -51.67 
422.58 8.15 -54.46 425.45 8.16 -57.41 428.17 8.16 -60.51 
430.73 8.16 -63.75 433.12 8.17 -67.12 435.33 8.17 -70.62 
437.37 8.17 -74.22 439.23 8.17 -77.92 440.90 8.18 -81.72 
442.40 8.18 -85.59 443.71 8.18 -89.54 444.85 8.19 -93.54 
445.83 8.19 -97.60 446.65 8.18 -101.70 447.33 8.18 -105.83 
447.89 8.17 -110.00 448.33 8.17 -114.19 448.68 8.15 -118.39 
448.94 8.14 -122.61 449.14 8.13 -126.84 449.28 8.11 -131.07 
449.38 8.09 -135.30 449.45 8.08 -139.53 449.50 8.06 -143.76 
449.53 8.05 -147.98 449.55 8.04 -152.20 449.57 8.03 -156.42 
449.57 8.02 -160.62 449.58 8.01 -164.83 449.58 8.01 -169.03 
449.58 8.01 -173.23 449.58 8.00 -177.42 449.58 8.00 -181.62 
449.58 8.00 -185.81 449.58 8.00 -190.01 449.58 8.00 -194.21 
449.58 8.00 -198.41 449.58 8.00 -202.61 449.58 8.00 -206.81 
449.58 8.00 -211.02 449.58 8.00 -215.23 449.58 8.00 -219.44 
449.58 8.00 -223.66 449.58 8.00 -227.89 449.58 8.00 -232.11 
449.58 8.00 -236.35 449.58 8.00 -240.59 449.58 8.00 -244.83 
449.58 8.00 -249.08 449.58 8.00 -253.34 449.58 8.00 -257.60 
449.58 8.00 -261.86 449.58 8.00 -266.14 449.58 8.00 -270.41 
449.58 8.00 -274.70 449.58 8.00 -278.98 449.58 8.00 -283.27 
449.58 8.01 -287.57 449.58 8.01 -291.86 449.58 8.01 -296.16 
[...]
POINT_DATA 1564
FIELD FieldData 1
MaximumInscribedSphereRadius 1 1564 double
2.60 2.54 2.48 2.42 2.35 2.29 2.23 2.18 2.14 
2.11 2.08 2.06 2.04 2.03 2.02 2.01 2.01 2.01 
2.00 2.00 2.00 2.00 2.00 2.00 2.00 2.00 2.00 
2.00 2.00 2.00 2.00 2.00 2.00 2.00 2.00 2.00 
2.00 2.00 2.00 2.00 2.00 2.00 2.00 2.00 2.00 
2.00 2.00 2.00 2.00 2.00 2.00 2.00 2.00 2.00 
2.00 2.00 2.00 2.00 2.00 2.00 2.00 2.00 2.00 
2.00 2.00 2.00 2.00 2.00 2.00 2.00 2.00 2.00 
2.00 2.00 2.00 2.00 2.00 2.00 2.00 2.00 2.00 
2.00 2.00 2.00 2.00 2.00 2.00 2.00 2.00 2.00 
2.00 2.00 2.00 2.01 2.01 2.01 2.02 2.03 2.03 
2.04 2.06 2.07 2.08 2.09 2.10 2.11 2.11 2.11 
2.10 2.09 2.08 2.07 2.05 2.04 2.02 2.01 2.00 
2.00 1.99 1.99 1.99 1.98 1.98 1.98 1.98 1.98 
1.98 1.98 1.98 1.98 1.98 1.97 1.97 1.97 1.96 
1.96 1.95 1.95 1.94 1.94 1.94 1.94 1.94 1.94 
1.94 1.95 1.95 1.96 1.96 1.96 1.97 1.97 1.97 
1.98 1.98 1.98 1.98 1.98 1.98 1.98 1.98 1.98 
1.98 1.98 1.98 1.98 1.98 1.98 1.98 1.98 1.98 
1.99 1.99 1.99 1.99 1.99 2.00 2.00 2.00 2.00 
2.00 2.00 2.00 2.00 2.00 2.00 2.00 2.00 2.00 
2.00 2.00 2.00 2.00 2.00 2.00 2.00 2.00 2.00 
1.99 1.99 1.99 1.99 1.99 1.99 1.99 1.99 2.00 
2.00 2.00 2.00 2.00 2.00 2.00 2.00 2.00 2.00 
2.00 2.00 2.00 2.00 2.00 2.00 2.00 2.00 2.00 
2.00 2.00 2.00 2.00 2.00 2.00 2.00 2.00 2.00 
2.00 2.00 2.00 2.00 2.00 2.00 2.00 2.00 2.00 
2.00 2.00 2.00 2.00 2.00 2.00 2.00 2.00 2.00 
2.00 2.00 2.01 2.01 2.01 2.02 2.02 2.03 2.03 
2.04 2.04 2.05 2.05 2.05 2.05 2.05 2.04 2.04 
2.03 2.03 2.02 2.02 2.01 2.01 2.01 2.01 2.01 
2.01 2.01 2.01 2.01 2.01 2.01 2.01 2.00 2.00 
2.00 2.00 2.00 2.00 2.00 2.00 2.00 2.00 2.00 
2.00 2.00 2.00 2.00 2.00 2.00 2.00 2.00 2.00 
2.00 2.00 2.00 2.00 2.00 2.00 2.00 2.00 2.00 
2.00 2.00 2.00 2.00 2.00 2.00 2.00 2.00 2.00 
2.00 2.00 2.00 2.00 2.00 2.00 2.00 2.00 2.00 
2.00 2.00 2.00 2.00 2.00 2.00 2.00 2.00 2.00 
2.00 2.00 2.00 2.00 2.00 2.00 2.00 2.00 2.00 
2.00 2.00 2.00 2.00 2.00 2.00 2.00 2.00 2.00 
2.00 2.00 2.00 2.00 2.00 2.00 2.00 2.00 2.00 
2.00 2.00 2.00 2.00 2.00 2.00 2.00 2.00 2.00 
2.00 2.00 2.00 2.00 2.00 2.00 1.99 1.99 1.99 
1.98 1.98 1.97 1.97 1.96 1.96 1.95 1.95 1.95 
1.95 1.95 1.96 1.96 1.96 1.97 1.97 1.98 1.98 
1.98 1.98 1.99 1.99 1.99 1.99 1.99 1.99 1.99 
1.99 1.98 1.98 1.98 1.98 1.97 1.97 1.96 1.96 
1.96 1.96 1.96 1.96 1.97 1.97 1.97 1.98 1.98 
1.98 1.98 1.98 1.99 1.99 1.99 1.99 1.99 1.99 
1.99 1.99 1.99 1.99 1.99 1.99 1.99 1.99 1.99 
1.99 1.99 1.99 1.99 1.99 1.99 1.99 1.99 1.99 
1.99 1.99 1.99 1.99 2.00 2.00 2.00 2.00 2.00 
2.00 2.00 2.00 2.00 2.00 2.00 2.00 2.00 2.00 
2.00 2.00 2.00 2.00 2.00 2.00 2.00 2.00 2.00 
2.00 2.00 2.00 2.00 2.00 2.00 2.00 2.00 2.00 
2.00 2.00 2.00 2.00 2.00 2.00 2.00 2.00 2.00 
2.00 2.00 2.00 2.00 2.00 2.00 2.00 2.00 2.00 
2.00 2.00 2.00 2.00 2.00 2.00 2.00 2.00 2.00 
2.00 2.00 2.00 2.00 2.00 2.00 2.00 1.99 1.99 
1.99 1.99 2.00 2.00 2.00 2.00 2.00 2.00 2.00 
2.00 2.00 2.00 2.00 2.00 2.00 2.00 2.00 2.00 
2.00 2.00 2.00 2.01 2.01 2.01 2.01 2.00 2.00 
2.00 2.00 2.00 2.00 2.00 2.00 2.00 2.01 2.01 
2.02 2.02 2.03 2.04 2.05 2.07 2.08 2.09 2.10 
2.11 2.11 2.11 2.11 2.10 2.09 2.08 2.06 2.05 
2.04 2.03 2.02 2.01 2.01 2.00 2.00 2.00 2.00 
2.00 2.00 2.00 2.00 2.00 2.00 2.00 2.00 2.00 
2.00 2.00 2.00 2.00 2.00 2.00 2.00 2.00 2.00 
2.00 2.00 2.00 2.00 2.00 2.00 2.00 2.00 2.00 
2.00 2.00 2.00 2.00 2.00 2.00 2.00 2.00 2.00 
2.00 2.00 2.00 2.00 2.00 2.00 2.00 2.00 2.00 
2.00 2.00 2.00 2.00 2.00 2.00 2.00 2.00 2.00 
2.00 2.00 2.00 2.00 2.00 2.00 2.00 2.00 2.00 
2.00 2.00 2.00 2.00 2.00 2.00 2.00 2.00 2.00 
2.00 2.00 2.00 2.00 2.00 2.00 2.00 2.00 2.00 
2.01 2.01 2.01 2.01 2.01 2.02 2.02 2.03 2.03 
2.04 2.04 2.05 2.05 2.05 2.05 2.05 2.04 2.04 
2.03 2.03 2.02 2.01 2.01 2.00 2.00 2.00 1.99 
1.99 1.99 1.99 1.99 1.99 1.99 1.99 1.99 1.99 
1.99 1.99 2.00 2.00 2.01 2.02 2.02 2.03 2.03 
2.04 2.04 2.05 2.05 2.05 2.05 2.04 2.04 2.04 
2.04 2.04 2.03 2.03 2.03 2.02 2.02 2.01 2.00 
1.99 1.99 1.98 1.97 1.97 1.97 1.97 1.97 1.98 
1.98 1.98 1.99 1.99 1.99 1.99 2.00 2.00 2.00 
2.00 2.00 2.00 2.00 2.00 2.00 2.00 2.00 2.00 
2.00 2.00 2.00 2.00 2.00 2.00 2.00 2.00 2.00 
2.00 2.00 2.00 2.00 2.00 2.00 2.00 2.00 2.00 
2.00 2.00 2.00 2.00 2.00 2.00 2.00 2.00 2.00 
2.00 2.00 2.00 2.00 2.00 2.00 2.00 2.00 2.00 
2.00 2.00 2.00 2.00 2.00 2.00 2.00 2.00 2.00 
2.00 2.00 2.00 2.00 2.00 2.00 2.00 2.00 2.00 
2.00 2.00 2.00 2.00 2.00 2.00 2.00 2.00 2.00 
2.00 2.00 2.00 2.00 2.00 2.00 2.00 2.00 2.00 
2.00 2.00 2.00 2.00 2.00 2.00 2.00 2.00 2.01 
2.01 2.02 2.02 2.03 2.03 2.04 2.05 2.05 2.05 
2.05 2.05 2.05 2.04 2.04 2.03 2.03 2.02 2.01 
2.01 2.01 2.01 2.01 2.01 2.01 2.01 2.01 2.00 
2.00 2.00 2.00 2.00 2.00 2.00 2.00 2.00 2.00 
2.00 2.00 2.00 2.00 2.00 2.00 2.00 2.00 2.00 
2.00 2.00 2.00 2.00 2.00 2.00 2.00 2.00 2.00 
2.00 2.00 2.00 2.00 2.00 2.00 2.00 2.00 2.00 
2.00 2.00 2.00 2.00 2.00 2.00 2.00 2.00 2.00 
2.00 2.00 2.00 2.00 2.00 2.00 2.00 2.00 2.00 
2.00 2.00 2.00 2.00 2.00 2.00 2.00 2.00 2.00 
2.00 2.00 2.00 2.00 2.00 2.00 2.00 2.00 2.00 
2.00 2.00 2.00 2.00 2.00 2.00 2.00 2.00 2.00 
2.00 2.00 2.00 2.00 2.00 2.00 1.99 1.99 1.99 
1.98 1.98 1.97 1.97 1.96 1.96 1.96 1.95 1.95 
1.95 1.96 1.96 1.96 1.96 1.97 1.97 1.97 1.97 
1.97 1.97 1.97 1.97 1.97 1.97 1.97 1.97 1.97 
1.97 1.98 1.98 1.98 1.98 1.98 1.99 1.99 1.99 
2.00 2.00 2.01 2.01 2.01 2.02 2.02 2.02 2.02 
2.02 2.01 2.01 2.01 2.01 2.00 2.00 2.00 2.00 
1.99 1.99 1.99 1.99 1.99 1.99 1.99 1.99 1.99 
1.99 1.99 1.99 1.99 1.99 1.99 1.99 1.99 2.00 
2.00 2.00 2.00 2.00 2.00 2.00 2.00 2.00 2.00 
2.00 2.00 2.00 2.00 2.00 2.00 2.00 2.00 2.00 
2.00 2.00 2.00 2.00 2.00 2.00 2.00 2.00 2.00 
2.00 2.00 2.00 2.00 2.00 2.00 2.00 2.00 2.00 
2.00 2.00 2.00 2.00 2.00 2.00 2.00 2.00 2.00 
2.00 2.00 2.00 2.00 2.00 2.00 2.00 2.00 2.00 
2.00 2.00 2.00 2.00 2.00 2.00 2.00 2.00 2.00 
2.00 2.00 2.00 2.00 2.00 2.00 2.00 2.00 2.00 
2.00 2.00 2.00 2.00 2.00 2.00 2.00 2.00 2.00 
2.00 2.00 2.00 2.00 2.00 2.00 2.00 1.99 1.99 
1.99 1.99 1.99 1.99 1.99 1.99 1.99 1.99 1.99 
1.99 2.00 2.00 2.00 2.00 2.00 2.00 2.00 2.00 
2.00 2.00 2.00 2.00 2.00 2.00 2.00 2.00 2.00 
2.00 2.00 2.00 2.00 2.01 2.01 2.01 2.01 2.01 
2.00 2.00 2.00 2.00 2.00 2.00 2.00 2.00 2.00 
2.00 2.00 2.00 2.00 2.00 2.00 2.00 2.00 2.00 
2.00 2.00 1.99 1.99 1.99 1.99 2.00 2.00 2.00 
2.00 2.00 2.00 2.00 2.00 2.00 2.00 2.00 2.00 
2.00 2.00 2.00 2.00 2.00 2.00 2.00 2.00 2.00 
2.00 2.00 2.00 2.00 2.00 2.00 2.00 2.00 2.00 
2.00 2.00 2.00 2.00 2.00 2.00 2.00 2.00 2.00 
2.00 2.00 2.00 2.00 2.00 2.00 2.00 2.00 2.00 
2.00 2.00 2.00 2.00 2.00 2.00 2.00 2.00 2.00 
2.00 2.00 2.00 2.00 2.00 2.00 1.99 1.99 1.99 
1.99 1.99 1.98 1.98 1.98 1.98 1.98 1.98 1.98 
1.98 1.98 1.98 1.98 1.98 1.98 1.98 1.98 1.98 
1.98 1.98 1.98 1.98 1.98 1.98 1.99 1.99 1.99 
1.99 1.99 1.99 1.99 1.99 1.99 1.99 1.99 1.99 
1.99 1.99 1.99 1.99 1.98 1.98 1.98 1.98 1.98 
1.98 1.98 1.98 1.98 1.97 1.97 1.97 1.97 1.97 
1.97 1.97 1.97 1.97 1.97 1.97 1.97 1.97 1.97 
1.97 1.98 1.98 1.98 1.98 1.98 1.99 1.99 1.99 
1.99 2.00 2.00 2.00 2.00 2.00 2.00 2.00 2.00 
2.00 2.00 2.00 2.00 2.00 2.00 2.00 2.00 2.00 
2.00 2.00 2.00 2.00 2.00 2.00 2.00 2.00 2.00 
2.00 2.00 2.00 2.00 2.00 2.00 2.00 2.00 2.00 
2.00 2.00 2.00 2.00 2.00 2.00 2.00 2.00 2.00 
2.00 2.00 2.00 2.00 2.00 2.00 2.00 2.00 2.00 
2.00 2.00 2.00 2.00 2.00 2.00 2.00 2.00 2.00 
2.00 2.00 2.00 2.00 2.00 2.00 2.00 2.00 2.00 
2.00 2.00 2.00 2.00 2.00 2.00 2.00 2.00 2.00 
2.00 2.00 2.00 2.00 2.00 2.00 2.00 2.00 2.00 
2.00 2.00 2.00 2.00 2.01 2.01 2.01 2.01 2.02 
2.02 2.03 2.03 2.04 2.04 2.05 2.05 2.06 2.06 
2.06 2.05 2.05 2.04 2.04 2.03 2.02 2.02 2.02 
2.01 2.01 2.01 2.01 2.01 2.01 2.01 2.00 2.00 
2.00 2.00 2.00 2.00 2.00 2.00 2.00 2.00 2.00 
2.00 2.00 2.00 2.00 2.00 2.00 2.00 2.00 2.00 
2.00 2.00 2.00 2.00 2.00 2.00 2.00 2.00 2.00 
2.00 2.00 2.00 2.00 2.00 2.00 2.00 2.00 2.00 
2.00 2.00 2.00 2.00 2.00 2.00 2.00 2.00 2.00 
2.00 2.00 2.00 2.00 2.00 2.00 2.00 2.00 2.00 
2.00 2.00 2.00 2.00 2.00 2.00 2.00 2.00 2.00 
2.00 2.00 2.00 2.00 2.00 2.00 2.00 2.00 2.00 
2.00 2.00 2.00 2.00 2.00 2.00 2.00 2.00 2.00 
2.00 2.00 2.00 1.99 1.99 1.99 1.99 1.99 2.00 
2.00 2.00 2.00 2.01 2.02 2.03 2.04 2.06 2.07 
2.10 2.12 2.15 2.18 2.21 2.24 2.28 2.32 2.36 
2.41 2.46 2.51 2.55 2.60 2.64 2.64 
