# vtk DataFile Version 3.0
vtk output
ASCII
DATASET POLYDATA
POINTS 432 float
-17.50 -4.54 175.34 -17.50 -4.54 174.36 -17.50 -4.54 173.28 
-17.50 -4.54 172.12 -17.50 -4.54 170.92 -17.50 -4.54 169.69 
-17.50 -4.54 168.45 -17.50 -4.54 167.19 -17.50 -4.54 165.93 
-17.50 -4.54 164.66 -17.50 -4.54 163.39 -17.50 -4.54 162.13 
-17.50 -4.54 160.87 -17.50 -4.54 159.61 -17.50 -4.54 158.36 
-17.50 -4.54 157.12 -17.50 -4.54 155.88 -17.50 -4.54 154.65 
-17.50 -4.54 153.42 -17.50 -4.54 152.19 -17.50 -4.54 150.96 
-17.50 -4.54 149.74 -17.50 -4.54 148.51 -17.50 -4.54 147.29 
-17.50 -4.54 146.06 -17.50 -4.54 144.84 -17.50 -4.54 143.61 
-17.50 -4.54 142.38 -17.50 -4.54 141.15 -17.50 -4.54 139.92 
-17.50 -4.54 138.69 -17.50 -4.54 137.46 -17.50 -4.54 136.22 
-17.50 -4.54 134.98 -17.50 -4.54 133.74 -17.50 -4.54 132.50 
-17.50 -4.54 131.25 -17.50 -4.54 130.00 -17.50 -4.54 128.75 
-17.50 -4.54 127.49 -17.50 -4.54 126.23 -17.50 -4.54 124.96 
-17.50 -4.54 123.70 -17.50 -4.54 122.43 -17.50 -4.54 121.16 
-17.50 -4.54 119.89 -17.50 -4.54 118.62 -17.50 -4.54 117.35 
-17.50 -4.54 116.08 -17.50 -4.54 114.82 -17.50 -4.54 113.56 
-17.50 -4.54 112.30 -17.50 -4.54 111.05 -17.50 -4.54 109.81 
-17.50 -4.54 108.57 -17.50 -4.54 107.34 -17.50 -4.54 106.11 
-17.50 -4.54 104.89 -17.50 -4.54 103.68 -17.50 -4.54 102.46 
-17.50 -4.54 101.26 -17.50 -4.54 100.05 -17.50 -4.54 98.84 
-17.50 -4.54 97.64 -17.50 -4.54 96.43 -17.50 -4.54 95.21 
-17.50 -4.54 94.00 -17.50 -4.54 92.77 -17.50 -4.54 91.54 
-17.50 -4.54 90.31 -17.50 -4.54 89.06 -17.50 -4.54 87.80 
-17.50 -4.54 86.54 -17.50 -4.54 85.26 -17.50 -4.54 83.98 
-17.50 -4.54 82.68 -17.50 -4.54 81.38 -17.50 -4.54 80.07 
-17.50 -4.54 78.75 -17.50 -4.54 77.42 -17.50 -4.54 76.09 
-17.50 -4.54 74.76 -17.50 -4.54 73.42 -17.50 -4.54 72.08 
-17.50 -4.54 70.75 -17.50 -4.54 69.41 -17.50 -4.54 68.08 
-17.50 -4.54 66.75 -17.50 -4.54 65.42 -17.50 -4.54 64.10 
-17.50 -4.54 62.78 -17.50 -4.54 61.46 -17.50 -4.54 60.15 
-17.50 -4.54 58.85 -17.50 -4.54 57.55 -17.50 -4.54 56.25 
-17.50 -4.54 54.96 -17.50 -4.54 53.67 -17.50 -4.54 52.38 
-17.50 -4.54 51.10 -17.50 -4.54 49.82 -17.50 -4.54 48.54 
-17.50 -4.54 47.26 -17.50 -4.54 45.98 -17.50 -4.54 44.70 
-17.50 -4.54 43.43 -17.50 -4.54 42.15 -17.50 -4.54 40.88 
-17.50 -4.54 39.61 -17.50 -4.54 38.34 -17.50 -4.54 37.08 
-17.50 -4.54 35.81 -17.50 -4.54 34.55 -17.50 -4.54 33.30 
-17.50 -4.54 32.04 -17.50 -4.54 30.79 -17.50 -4.54 29.54 
-17.50 -4.54 28.29 -17.50 -4.54 27.05 -17.50 -4.54 25.81 
-17.50 -4.54 24.56 -17.50 -4.54 23.33 -17.50 -4.54 22.09 
-17.50 -4.54 20.85 -17.50 -4.54 19.61 -17.50 -4.54 18.37 
-17.50 -4.54 17.13 -17.50 -4.54 15.89 -17.50 -4.54 14.65 
-17.50 -4.54 13.41 -17.50 -4.54 12.18 -17.50 -4.54 10.94 
-17.50 -4.54 9.70 -17.50 -4.54 8.46 -17.50 -4.54 7.23 
-17.50 -4.54 6.00 -17.50 -4.54 4.77 -17.50 -4.54 3.54 
-17.50 -4.54 2.32 -17.50 -4.54 1.10 -17.50 -4.54 -0.12 
-17.50 -4.54 -1.33 -17.50 -4.54 -2.54 -17.50 -4.54 -3.74 
-17.50 -4.54 -4.94 -17.50 -4.54 -6.14 -17.50 -4.54 -7.33 
-17.50 -4.54 -8.51 -17.50 -4.54 -9.70 -17.50 -4.54 -10.88 
-17.50 -4.54 -12.06 -17.50 -4.54 -13.23 -17.50 -4.54 -14.40 
-17.50 -4.54 -15.57 -17.50 -4.54 -16.74 -17.50 -4.54 -17.91 
-17.50 -4.54 -19.07 -17.50 -4.54 -20.24 -17.50 -4.54 -21.40 
-17.50 -4.54 -22.56 -17.50 -4.54 -23.72 -17.50 -4.54 -24.88 
-17.50 -4.54 -26.04 -17.50 -4.54 -27.20 -17.50 -4.54 -28.36 
-17.50 -4.54 -29.52 -17.50 -4.54 -30.68 -17.50 -4.54 -31.85 
-17.50 -4.54 -33.01 -17.50 -4.54 -34.18 -17.50 -4.54 -35.35 
-17.50 -4.54 -36.52 -17.50 -4.54 -37.69 -17.50 -4.54 -38.87 
-17.50 -4.54 -40.05 -17.50 -4.54 -41.24 -17.50 -4.54 -42.43 
-17.50 -4.54 -43.62 -17.50 -4.54 -44.81 -17.50 -4.54 -46.01 
-17.50 -4.54 -47.22 -17.50 -4.54 -48.42 -17.50 -4.54 -49.63 
-17.50 -4.54 -50.84 -17.50 -4.54 -52.06 -17.50 -4.54 -53.27 
-17.50 -4.54 -54.49 -17.50 -4.54 -55.71 -17.50 -4.54 -56.93 
-17.50 -4.54 -58.15 -17.50 -4.54 -59.37 -17.50 -4.54 -60.59 
-17.50 -4.54 -61.82 -17.50 -4.54 -63.05 -17.50 -4.54 -64.27 
-17.50 -4.54 -65.51 -17.50 -4.54 -66.74 -17.50 -4.54 -67.98 
-17.50 -4.54 -69.22 -17.50 -4.54 -70.46 -17.50 -4.54 -71.71 
-17.50 -4.54 -72.96 -17.50 -4.54 -74.22 -17.50 -4.54 -75.48 
-17.50 -4.54 -76.74 -17.50 -4.54 -78.01 -17.50 -4.54 -79.29 
-17.50 -4.54 -80.58 -17.50 -4.54 -81.88 -17.50 -4.54 -83.20 
-17.50 -4.54 -84.52 -17.50 -4.54 -85.85 -17.50 -4.54 -87.20 
-17.50 -4.54 -88.55 -17.50 -4.54 -89.91 -17.50 -4.54 -91.27 
-17.50 -4.54 -92.62 -17.50 -4.54 -93.97 -17.50 -4.54 -95.32 
-17.50 -4.54 -96.65 -17.50 -4.54 -97.97 -17.50 -4.54 -99.28 
-17.50 -4.54 -100.57 -17.50 -4.54 -101.85 -17.50 -4.54 -103.12 
-17.50 -4.54 -104.38 -17.50 -4.54 -105.63 -17.50 -4.54 -106.87 
-17.50 -4.54 -108.11 -17.50 -4.54 -109.34 -17.50 -4.54 -110.56 
-17.50 -4.54 -111.78 -17.50 -4.54 -112.99 -17.50 -4.54 -114.20 
-17.50 -4.54 -115.41 -17.50 -4.54 -116.61 -17.50 -4.54 -117.81 
-17.50 -4.54 -119.00 -17.50 -4.54 -120.20 -17.50 -4.54 -121.39 
-17.50 -4.54 -122.58 -17.50 -4.54 -123.76 -17.50 -4.54 -124.95 
-17.50 -4.54 -126.13 -17.50 -4.54 -127.31 -17.50 -4.54 -128.48 
-17.50 -4.54 -129.66 -17.50 -4.54 -130.83 -17.50 -4.54 -132.00 
-17.50 -4.54 -133.17 -17.50 -4.54 -134.34 -17.50 -4.54 -135.50 
-17.50 -4.54 -136.67 -17.50 -4.54 -137.83 -17.50 -4.54 -138.99 
-17.50 -4.54 -140.16 -17.50 -4.54 -141.32 -17.50 -4.54 -142.49 
-17.50 -4.54 -143.65 -17.50 -4.54 -144.82 -17.50 -4.54 -145.99 
-17.50 -4.54 -147.17 -17.50 -4.54 -148.35 -17.50 -4.54 -149.53 
-17.50 -4.54 -150.72 -17.50 -4.54 -151.91 -17.50 -4.54 -153.11 
-17.50 -4.54 -154.31 -17.50 -4.54 -155.52 -17.50 -4.54 -156.73 
-17.50 -4.54 -157.94 -17.50 -4.54 -159.16 -17.50 -4.54 -160.39 
-17.50 -4.54 -161.62 -17.50 -4.54 -162.85 -17.50 -4.54 -164.08 
-17.50 -4.54 -165.32 -17.50 -4.54 -166.56 -17.50 -4.54 -167.80 
-17.50 -4.54 -169.04 -17.50 -4.54 -170.28 -17.50 -4.54 -171.53 
-17.50 -4.54 -172.77 -17.50 -4.54 -174.01 -17.50 -4.54 -175.25 
-17.50 -4.54 -176.50 -17.50 -4.54 -177.74 -17.50 -4.54 -178.97 
-17.50 -4.54 -180.21 -17.50 -4.54 -181.44 -17.50 -4.54 -182.68 
-17.50 -4.54 -183.91 -17.50 -4.54 -185.14 -17.50 -4.54 -186.36 
-17.50 -4.54 -187.59 -17.50 -4.54 -188.81 -17.50 -4.54 -190.03 
-17.50 -4.54 -191.25 -17.50 -4.54 -192.46 -17.50 -4.54 -193.68 
-17.50 -4.54 -194.89 -17.50 -4.54 -196.11 -17.50 -4.54 -197.32 
-17.50 -4.54 -198.53 -17.50 -4.54 -199.75 -17.50 -4.54 -200.96 
-17.50 -4.54 -202.18 -17.50 -4.54 -203.39 -17.50 -4.54 -204.61 
-17.50 -4.54 -205.83 -17.50 -4.54 -207.05 -17.50 -4.54 -208.27 
-17.50 -4.54 -209.50 -17.50 -4.54 -210.72 -17.50 -4.54 -211.95 
-17.50 -4.54 -213.18 -17.50 -4.54 -214.42 -17.50 -4.54 -215.65 
-17.50 -4.54 -216.88 -17.50 -4.54 -218.12 -17.50 -4.54 -219.35 
-17.50 -4.54 -220.59 -17.50 -4.54 -221.82 -17.50 -4.54 -223.06 
-17.50 -4.54 -224.29 -17.50 -4.54 -225.52 -17.50 -4.54 -226.75 
-17.50 -4.54 -227.98 -17.50 -4.54 -229.21 -17.50 -4.54 -230.43 
-17.50 -4.54 -231.65 -17.50 -4.54 -232.87 -17.50 -4.54 -234.09 
-17.50 -4.54 -235.31 -17.50 -4.54 -236.52 -17.50 -4.54 -237.73 
-17.50 -4.54 -238.94 -17.50 -4.54 -240.15 -17.50 -4.54 -241.36 
-17.50 -4.54 -242.56 -17.50 -4.54 -243.77 -17.50 -4.54 -244.97 
-17.50 -4.54 -246.17 -17.50 -4.54 -247.37 -17.50 -4.54 -248.58 
-17.50 -4.54 -249.78 -17.50 -4.54 -250.98 -17.50 -4.54 -252.18 
-17.50 -4.54 -253.39 -17.50 -4.54 -254.59 -17.50 -4.54 -255.80 
-17.50 -4.54 -257.01 -17.50 -4.54 -258.23 -17.50 -4.54 -259.45 
-17.50 -4.54 -260.67 -17.50 -4.54 -261.90 -17.50 -4.54 -263.13 
-17.50 -4.54 -264.37 -17.50 -4.54 -265.61 -17.50 -4.54 -266.86 
-17.50 -4.54 -268.11 -17.50 -4.54 -269.36 -17.50 -4.54 -270.63 
-17.50 -4.54 -271.89 -17.50 -4.54 -273.16 -17.50 -4.54 -274.44 
-17.50 -4.54 -275.72 -17.50 -4.54 -277.00 -17.50 -4.54 -278.28 
-17.50 -4.54 -279.57 -17.50 -4.54 -280.86 -17.50 -4.54 -282.15 
-17.50 -4.54 -283.45 -17.50 -4.54 -284.75 -17.50 -4.54 -286.05 
-17.50 -4.54 -287.35 -17.50 -4.54 -288.66 -17.50 -4.54 -289.97 
-17.50 -4.54 -291.28 -17.50 -4.54 -292.59 -17.50 -4.54 -293.90 
-17.50 -4.54 -295.22 -17.50 -4.54 -296.53 -17.50 -4.54 -297.85 
-17.50 -4.54 -299.16 -17.50 -4.54 -300.48 -17.50 -4.54 -301.79 
-17.50 -4.54 -303.10 -17.50 -4.54 -304.41 -17.50 -4.54 -305.72 
-17.50 -4.54 -307.03 -17.50 -4.54 -308.34 -17.50 -4.54 -309.64 
-17.50 -4.54 -310.95 -17.50 -4.54 -312.25 -17.50 -4.54 -313.55 
-17.50 -4.54 -314.85 -17.50 -4.54 -316.16 -17.50 -4.54 -317.46 
-17.50 -4.54 -318.76 -17.50 -4.54 -320.07 -17.50 -4.54 -321.37 
-17.50 -4.54 -322.68 -17.50 -4.54 -323.98 -17.50 -4.54 -325.28 
-17.50 -4.54 -326.59 -17.50 -4.54 -327.89 -17.50 -4.54 -329.19 
-17.50 -4.54 -330.49 -17.50 -4.54 -331.79 -17.50 -4.54 -333.09 
-17.50 -4.54 -334.38 -17.50 -4.54 -335.67 -17.50 -4.54 -336.96 
-17.50 -4.54 -338.25 -17.50 -4.54 -339.54 -17.50 -4.54 -340.82 
-17.50 -4.54 -342.10 -17.50 -4.54 -343.38 -17.50 -4.54 -344.65 
-17.50 -4.54 -345.92 -17.50 -4.54 -347.17 -17.50 -4.54 -348.41 
-17.50 -4.54 -349.64 -17.50 -4.54 -350.84 -17.50 -4.54 -352.02 
-17.50 -4.54 -353.17 -17.50 -4.54 -354.26 -17.50 -4.54 -355.29 
-17.50 -4.54 -356.21 -17.50 -4.54 178.16 -17.50 -4.54 -358.84 

LINES 1 433
432 431 429 428 427 426 425 424 423 422 421 420 419 418 417 416 415 414 413 412 411 410 409 408 407 406 405 404 403 402 401 400 399 398 397 396 395 394 393 392 391 390 389 388 387 386 385 384 383 382 381 380 379 378 377 376 375 374 373 372 371 370 369 368 367 366 365 364 363 362 361 360 359 358 357 356 355 354 353 352 351 350 349 348 347 346 345 344 343 342 341 340 339 338 337 336 335 334 333 332 331 330 329 328 327 326 325 324 323 322 321 320 319 318 317 316 315 314 313 312 311 310 309 308 307 306 305 304 303 302 301 300 299 298 297 296 295 294 293 292 291 290 289 288 287 286 285 284 283 282 281 280 279 278 277 276 275 274 273 272 271 270 269 268 267 266 265 264 263 262 261 260 259 258 257 256 255 254 253 252 251 250 249 248 247 246 245 244 243 242 241 240 239 238 237 236 235 234 233 232 231 230 229 228 227 226 225 224 223 222 221 220 219 218 217 216 215 214 213 212 211 210 209 208 207 206 205 204 203 202 201 200 199 198 197 196 195 194 193 192 191 190 189 188 187 186 185 184 183 182 181 180 179 178 177 176 175 174 173 172 171 170 169 168 167 166 165 164 163 162 161 160 159 158 157 156 155 154 153 152 151 150 149 148 147 146 145 144 143 142 141 140 139 138 137 136 135 134 133 132 131 130 129 128 127 126 125 124 123 122 121 120 119 118 117 116 115 114 113 112 111 110 109 108 107 106 105 104 103 102 101 100 99 98 97 96 95 94 93 92 91 90 89 88 87 86 85 84 83 82 81 80 79 78 77 76 75 74 73 72 71 70 69 68 67 66 65 64 63 62 61 60 59 58 57 56 55 54 53 52 51 50 49 48 47 46 45 44 43 42 41 40 39 38 37 36 35 34 33 32 31 30 29 28 27 26 25 24 23 22 21 20 19 18 17 16 15 14 13 12 11 10 9 8 7 6 5 4 3 2 1 0 430 
POINT_DATA 432
FIELD FieldData 1
MaximumInscribedSphereRadius 1 432 double
1.50 1.50 1.50 1.50 1.50 1.50 1.50 1.50 1.50 
1.50 1.50 1.50 1.50 1.50 1.50 1.50 1.50 1.50 
1.50 1.50 1.50 1.50 1.50 1.50 1.50 1.50 1.50 
1.50 1.50 1.50 1.50 1.50 1.50 1.50 1.50 1.50 
1.50 1.50 1.50 1.50 1.50 1.50 1.50 1.50 1.50 
1.50 1.50 1.50 1.50 1.50 1.50 1.50 1.50 1.50 
1.50 1.50 1.50 1.50 1.50 1.50 1.50 1.50 1.50 
1.50 1.50 1.50 1.50 1.50 1.50 1.50 1.50 1.50 
1.50 1.50 1.50 1.50 1.50 1.50 1.50 1.50 1.50 
1.50 1.50 1.50 1.50 1.50 1.50 1.50 1.50 1.50 
1.50 1.50 1.50 1.50 1.50 1.50 1.50 1.50 1.50 
1.50 1.50 1.50 1.50 1.50 1.50 1.50 1.50 1.50 
1.50 1.50 1.50 1.50 1.50 1.50 1.50 1.50 1.50 
1.50 1.50 1.50 1.50 1.50 1.50 1.50 1.50 1.50 
1.50 1.50 1.50 1.50 1.50 1.50 1.50 1.50 1.50 
1.50 1.50 1.50 1.50 1.50 1.50 1.50 1.50 1.50 
1.50 1.50 1.50 1.50 1.50 1.50 1.50 1.50 1.50 
1.50 1.50 1.50 1.50 1.50 1.50 1.50 1.50 1.50 
1.50 1.50 1.50 1.50 1.50 1.50 1.50 1.50 1.50 
1.50 1.50 1.50 1.50 1.50 1.50 1.50 1.50 1.50 
1.50 1.50 1.50 1.50 1.50 1.50 1.50 1.50 1.50 
1.50 1.50 1.50 1.50 1.50 1.50 1.50 1.50 1.50 
1.50 1.50 1.50 1.50 1.50 1.50 1.50 1.50 1.50 
1.50 1.50 1.50 1.50 1.50 1.50 1.50 1.50 1.50 
1.50 1.50 1.50 1.50 1.50 1.50 1.50 1.50 1.50 
1.50 1.50 1.50 1.50 1.50 1.50 1.50 1.50 1.50 
1.50 1.50 1.50 1.50 1.50 1.50 1.50 1.50 1.50 
1.50 1.50 1.50 1.50 1.50 1.50 1.50 1.50 1.50 
1.50 1.50 1.50 1.50 1.50 1.50 1.50 1.50 1.50 
1.50 1.50 1.50 1.50 1.50 1.50 1.50 1.50 1.50 
1.50 1.50 1.50 1.50 1.50 1.50 1.50 1.50 1.50 
1.50 1.50 1.50 1.50 1.50 1.50 1.50 1.50 1.50 
1.50 1.50 1.50 1.50 1.50 1.50 1.50 1.50 1.50 
1.50 1.50 1.50 1.50 1.50 1.50 1.50 1.50 1.50 
1.50 1.50 1.50 1.50 1.50 1.50 1.50 1.50 1.50 
1.50 1.50 1.50 1.50 1.50 1.50 1.50 1.50 1.50 
1.50 1.50 1.50 1.50 1.50 1.50 1.50 1.50 1.50 
1.50 1.50 1.50 1.50 1.50 1.50 1.50 1.50 1.50 
1.50 1.50 1.50 1.50 1.50 1.50 1.50 1.50 1.50 
1.50 1.50 1.50 1.50 1.50 1.50 1.50 1.50 1.50 
1.50 1.50 1.50 1.50 1.50 1.50 1.50 1.50 1.50 
1.50 1.50 1.50 1.50 1.50 1.50 1.50 1.50 1.50 
1.50 1.50 1.50 1.50 1.50 1.50 1.50 1.50 1.50 
1.50 1.50 1.50 1.50 1.50 1.50 1.50 1.50 1.50 
1.50 1.50 1.50 1.50 1.50 1.50 1.50 1.50 1.50 
1.50 1.50 1.50 1.50 1.50 1.50 1.50 1.50 1.50 
1.50 1.50 1.50 1.50 1.50 1.50 1.50 1.50 1.50 
1.50 1.50 1.50 1.50 1.50 1.50 1.50 1.50 1.50 

