# vtk DataFile Version 3.0
vtk output
ASCII
DATASET POLYDATA
POINTS 24 float
2404.63 -368.73 917.05 2398.01 -368.23 916.35 2390.38 -367.52 915.40 
2381.99 -366.59 914.15 2373.13 -365.48 912.65 2364.04 -364.33 910.96 
2354.91 -363.39 909.25 2345.83 -362.98 907.74 2336.85 -363.46 906.65 
2327.93 -365.07 906.16 2319.01 -367.82 906.30 2310.03 -371.44 906.99 
2300.91 -375.45 908.01 2291.67 -379.28 909.12 2282.32 -382.48 910.13 
2272.96 -384.82 910.94 2263.67 -386.29 911.52 2254.60 -387.04 911.91 
2245.89 -387.28 912.16 2237.75 -387.22 912.33 2230.42 -387.01 912.44 
2224.10 -386.77 912.52 2421.33 -369.51 918.22 2208.29 -386.06 912.67 

LINES 1 25
24 23 21 20 19 18 17 16 15 14 13 12 11 10 9 8 7 6 5 4 3 2 1 0 22 
POINT_DATA 24
FIELD FieldData 1
MaximumInscribedSphereRadius 1 24 double
30.40 29.98 29.37 28.55 27.50 26.25 24.89 23.57 22.45 
21.71 21.46 21.68 22.30 23.14 24.04 24.86 25.50 25.94 
26.19 26.28 26.25 26.14 30.68 26.00 
