# vtk DataFile Version 3.0
vtk output
ASCII
DATASET POLYDATA
POINTS 12 float
1376.52 -290.04 1341.52 1372.57 -288.19 1345.20 1367.68 -285.48 1350.54 
1362.03 -281.90 1357.58 1356.01 -277.61 1365.95 1350.09 -272.92 1374.96 
1344.80 -268.24 1383.76 1340.51 -263.95 1391.58 1337.38 -260.32 1397.94 
1335.32 -257.46 1402.69 1384.95 -292.44 1336.71 1333.14 -251.65 1410.93 

LINES 1 13
12 11 9 8 7 6 5 4 3 2 1 0 10 
POINT_DATA 12
FIELD FieldData 1
MaximumInscribedSphereRadius 1 12 double
62.28 59.37 55.37 50.39 44.79 39.06 33.79 29.39 26.07 
23.79 64.20 22.37 
