# vtk DataFile Version 3.0
vtk output
ASCII
DATASET POLYDATA
POINTS 1294 float
-313.82 -4.37 140.12 -312.75 -4.36 139.97 -311.59 -4.36 139.76 
-310.39 -4.35 139.49 -309.20 -4.35 139.13 -308.04 -4.34 138.67 
-306.93 -4.34 138.10 -305.91 -4.34 137.41 -304.97 -4.33 136.60 
-304.14 -4.33 135.66 -303.41 -4.33 134.59 -302.79 -4.33 133.40 
-302.27 -4.33 132.11 -301.85 -4.33 130.73 -301.52 -4.33 129.27 
-301.27 -4.33 127.74 -301.09 -4.33 126.17 -300.95 -4.33 124.56 
-300.85 -4.33 122.93 -300.79 -4.33 121.28 -300.74 -4.33 119.63 
-300.71 -4.33 117.96 -300.69 -4.33 116.30 -300.67 -4.33 114.63 
-300.66 -4.33 112.96 -300.66 -4.33 111.28 -300.65 -4.33 109.61 
-300.64 -4.33 107.94 -300.64 -4.33 106.26 -300.63 -4.33 104.58 
-300.62 -4.33 102.89 -300.62 -4.33 101.21 -300.61 -4.33 99.51 
-300.61 -4.33 97.81 -300.60 -4.33 96.11 -300.60 -4.33 94.40 
-300.59 -4.33 92.68 -300.59 -4.33 90.96 -300.58 -4.33 89.23 
-300.57 -4.33 87.49 -300.57 -4.33 85.75 -300.56 -4.33 84.01 
-300.56 -4.33 82.25 -300.55 -4.33 80.49 -300.54 -4.33 78.73 
-300.54 -4.33 76.96 -300.53 -4.33 75.19 -300.53 -4.33 73.42 
-300.52 -4.33 71.64 -300.51 -4.33 69.85 -300.51 -4.33 68.07 
-300.50 -4.33 66.28 -300.50 -4.33 64.49 -300.49 -4.33 62.69 
-300.49 -4.33 60.89 -300.48 -4.33 59.09 -300.47 -4.33 57.28 
-300.47 -4.33 55.47 -300.46 -4.33 53.66 -300.46 -4.33 51.85 
-300.45 -4.33 50.03 -300.44 -4.33 48.21 -300.44 -4.33 46.39 
-300.43 -4.33 44.57 -300.42 -4.33 42.75 -300.42 -4.33 40.93 
-300.41 -4.33 39.11 -300.41 -4.33 37.29 -300.40 -4.33 35.47 
-300.39 -4.33 33.65 -300.39 -4.33 31.84 -300.38 -4.33 30.03 
-300.38 -4.33 28.23 -300.37 -4.33 26.43 -300.36 -4.33 24.64 
-300.36 -4.33 22.85 -300.35 -4.33 21.08 -300.35 -4.33 19.31 
-300.34 -4.33 17.55 -300.34 -4.33 15.80 -300.33 -4.33 14.06 
-300.32 -4.33 12.33 -300.32 -4.33 10.60 -300.31 -4.33 8.88 
-300.31 -4.33 7.17 -300.30 -4.33 5.46 -300.30 -4.33 3.76 
-300.29 -4.33 2.06 -300.28 -4.33 0.36 -300.28 -4.33 -1.34 
-300.27 -4.33 -3.03 -300.27 -4.33 -4.73 -300.26 -4.33 -6.43 
-300.26 -4.33 -8.13 -300.25 -4.33 -9.83 -300.24 -4.33 -11.54 
-300.24 -4.33 -13.25 -300.23 -4.33 -14.97 -300.23 -4.33 -16.69 
-300.22 -4.33 -18.42 -300.22 -4.33 -20.16 -300.21 -4.33 -21.90 
-300.20 -4.33 -23.64 -300.20 -4.33 -25.40 -300.19 -4.33 -27.16 
-300.19 -4.33 -28.93 -300.18 -4.33 -30.71 -300.17 -4.33 -32.49 
-300.17 -4.33 -34.28 -300.16 -4.33 -36.08 -300.16 -4.33 -37.89 
-300.15 -4.33 -39.70 -300.14 -4.33 -41.52 -300.14 -4.33 -43.34 
-300.13 -4.33 -45.17 -300.13 -4.33 -47.00 -300.12 -4.33 -48.84 
-300.11 -4.33 -50.67 -300.11 -4.33 -52.51 -300.10 -4.33 -54.35 
-300.10 -4.33 -56.19 -300.09 -4.33 -58.03 -300.08 -4.33 -59.86 
-300.08 -4.33 -61.69 -300.07 -4.33 -63.52 -300.07 -4.33 -65.34 
-300.06 -4.33 -67.16 -300.05 -4.33 -68.97 -300.05 -4.33 -70.77 
-300.04 -4.33 -72.57 -300.04 -4.33 -74.36 -300.03 -4.33 -76.15 
-300.02 -4.33 -77.93 -300.02 -4.33 -79.70 -300.01 -4.33 -81.46 
-300.01 -4.33 -83.22 -300.00 -4.33 -84.97 -299.99 -4.33 -86.71 
-299.99 -4.33 -88.44 -299.98 -4.33 -90.17 -299.98 -4.33 -91.89 
-299.97 -4.33 -93.61 -299.97 -4.33 -95.31 -299.96 -4.33 -97.02 
-299.95 -4.33 -98.71 -299.95 -4.33 -100.41 -299.94 -4.33 -102.10 
-299.94 -4.33 -103.79 -299.93 -4.33 -105.48 -299.93 -4.33 -107.17 
-299.92 -4.33 -108.86 -299.92 -4.33 -110.55 -299.91 -4.33 -112.24 
-299.90 -4.33 -113.94 -299.90 -4.33 -115.64 -299.89 -4.33 -117.34 
-299.89 -4.33 -119.05 -299.88 -4.33 -120.76 -299.88 -4.33 -122.48 
-299.87 -4.33 -124.20 -299.86 -4.33 -125.92 -299.86 -4.33 -127.65 
-299.85 -4.33 -129.38 -299.85 -4.33 -131.11 -299.84 -4.33 -132.84 
-299.84 -4.33 -134.57 -299.83 -4.33 -136.31 -299.82 -4.33 -138.04 
-299.82 -4.33 -139.77 -299.81 -4.33 -141.50 -299.81 -4.33 -143.23 
-299.80 -4.33 -144.95 -299.79 -4.33 -146.68 -299.79 -4.33 -148.40 
-299.78 -4.33 -150.12 -299.78 -4.33 -151.84 -299.77 -4.33 -153.57 
-299.77 -4.33 -155.29 -299.76 -4.33 -157.02 -299.75 -4.33 -158.74 
-299.75 -4.33 -160.48 -299.74 -4.33 -162.21 -299.74 -4.33 -163.96 
-299.73 -4.33 -165.70 -299.73 -4.33 -167.46 -299.72 -4.33 -169.22 
-299.71 -4.33 -170.99 -299.71 -4.33 -172.76 -299.70 -4.33 -174.54 
-299.70 -4.33 -176.33 -299.69 -4.33 -178.13 -299.68 -4.33 -179.93 
-299.68 -4.33 -181.74 -299.67 -4.33 -183.55 -299.67 -4.33 -185.36 
-299.66 -4.33 -187.18 -299.65 -4.33 -189.00 -299.65 -4.33 -190.83 
-299.64 -4.33 -192.65 -299.64 -4.33 -194.48 -299.63 -4.33 -196.30 
-299.62 -4.33 -198.12 -299.62 -4.33 -199.93 -299.61 -4.33 -201.75 
-299.61 -4.33 -203.55 -299.60 -4.33 -205.36 -299.59 -4.33 -207.15 
-299.59 -4.33 -208.94 -299.58 -4.33 -210.72 -299.58 -4.33 -212.50 
-299.57 -4.33 -214.26 -299.56 -4.33 -216.02 -299.56 -4.33 -217.78 
-299.55 -4.33 -219.52 -299.55 -4.33 -221.26 -299.54 -4.33 -222.99 
-299.54 -4.33 -224.72 -299.53 -4.33 -226.44 -299.52 -4.33 -228.16 
-299.52 -4.33 -229.87 -299.51 -4.33 -231.58 -299.51 -4.33 -233.29 
-299.50 -4.33 -234.99 -299.50 -4.33 -236.69 -299.49 -4.33 -238.39 
-299.48 -4.33 -240.09 -299.48 -4.33 -241.78 -299.47 -4.33 -243.48 
-299.47 -4.33 -245.18 -299.46 -4.33 -246.88 -299.46 -4.33 -248.58 
-299.45 -4.33 -250.29 -299.44 -4.33 -251.99 -299.44 -4.33 -253.71 
-299.43 -4.33 -255.42 -299.43 -4.33 -257.15 -299.42 -4.33 -258.87 
-299.42 -4.33 -260.60 -299.41 -4.33 -262.34 -299.40 -4.33 -264.07 
-299.40 -4.33 -265.81 -299.39 -4.33 -267.55 -299.39 -4.33 -269.30 
-299.38 -4.33 -271.04 -299.38 -4.33 -272.79 -299.37 -4.33 -274.53 
-299.36 -4.33 -276.27 -299.36 -4.33 -278.01 -299.35 -4.33 -279.74 
-299.34 -4.33 -281.47 -299.34 -4.33 -283.20 -299.33 -4.33 -284.92 
-299.31 -4.33 -286.64 -299.30 -4.33 -288.35 -299.28 -4.33 -290.06 
-299.26 -4.33 -291.76 -299.22 -4.33 -293.46 -299.18 -4.33 -295.16 
-299.12 -4.33 -296.85 -299.05 -4.33 -298.53 -298.95 -4.33 -300.21 
-298.83 -4.33 -301.88 -298.68 -4.33 -303.55 -298.50 -4.33 -305.20 
-298.28 -4.33 -306.85 -298.02 -4.33 -308.49 -297.72 -4.33 -310.11 
-297.37 -4.33 -311.72 -296.97 -4.33 -313.32 -296.53 -4.33 -314.90 
-296.03 -4.33 -316.46 -295.48 -4.33 -318.01 -294.88 -4.33 -319.53 
-294.23 -4.33 -321.04 -293.53 -4.33 -322.52 -292.78 -4.33 -323.97 
-291.97 -4.33 -325.40 -291.12 -4.33 -326.80 -290.21 -4.33 -328.17 
-289.26 -4.33 -329.51 -288.26 -4.33 -330.81 -287.22 -4.33 -332.08 
-286.13 -4.33 -333.31 -285.00 -4.33 -334.51 -283.83 -4.33 -335.66 
-282.61 -4.33 -336.78 -281.37 -4.33 -337.85 -280.08 -4.33 -338.87 
-278.77 -4.33 -339.85 -277.42 -4.33 -340.78 -276.05 -4.33 -341.66 
-274.65 -4.33 -342.49 -273.23 -4.33 -343.27 -271.78 -4.33 -344.00 
-270.32 -4.33 -344.68 -268.85 -4.33 -345.30 -267.35 -4.33 -345.87 
-265.85 -4.33 -346.39 -264.33 -4.33 -346.85 -262.80 -4.33 -347.26 
-261.27 -4.33 -347.62 -259.72 -4.33 -347.92 -258.17 -4.33 -348.18 
-256.62 -4.33 -348.37 -255.06 -4.33 -348.52 -253.50 -4.33 -348.61 
-251.94 -4.33 -348.65 -250.37 -4.33 -348.64 -248.81 -4.33 -348.58 
-247.25 -4.33 -348.46 -245.69 -4.33 -348.29 -244.13 -4.33 -348.06 
-242.58 -4.33 -347.78 -241.04 -4.33 -347.45 -239.50 -4.33 -347.06 
-237.97 -4.33 -346.62 -236.46 -4.33 -346.13 -234.95 -4.33 -345.58 
-233.46 -4.33 -344.98 -231.98 -4.33 -344.33 -230.52 -4.33 -343.62 
-229.08 -4.33 -342.85 -227.66 -4.33 -342.04 -226.26 -4.33 -341.17 
-224.89 -4.33 -340.26 -223.55 -4.33 -339.29 -222.24 -4.33 -338.27 
-220.97 -4.33 -337.21 -219.73 -4.33 -336.10 -218.52 -4.33 -334.95 
-217.36 -4.33 -333.75 -216.24 -4.33 -332.51 -215.17 -4.33 -331.23 
-214.14 -4.33 -329.92 -213.15 -4.33 -328.57 -212.22 -4.33 -327.19 
-211.34 -4.33 -325.78 -210.51 -4.33 -324.34 -209.73 -4.33 -322.88 
-209.00 -4.33 -321.39 -208.33 -4.33 -319.88 -207.71 -4.33 -318.34 
-207.15 -4.33 -316.79 -206.64 -4.33 -315.23 -206.18 -4.33 -313.64 
-205.77 -4.33 -312.05 -205.41 -4.33 -310.44 -205.10 -4.33 -308.83 
-204.84 -4.33 -307.20 -204.61 -4.33 -305.57 -204.43 -4.33 -303.94 
-204.28 -4.33 -302.30 -204.16 -4.33 -300.66 -204.06 -4.33 -299.02 
-203.99 -4.33 -297.38 -203.94 -4.33 -295.74 -203.90 -4.33 -294.10 
-203.87 -4.33 -292.47 -203.86 -4.33 -290.83 -203.85 -4.33 -289.20 
-203.84 -4.33 -287.56 -203.84 -4.33 -285.93 -203.84 -4.33 -284.30 
-203.84 -4.33 -282.67 -203.85 -4.33 -281.04 -203.85 -4.33 -279.41 
-203.86 -4.33 -277.77 -203.86 -4.33 -276.14 -203.87 -4.33 -274.50 
-203.87 -4.33 -272.86 -203.88 -4.33 -271.22 -203.88 -4.33 -269.57 
-203.89 -4.33 -267.92 -203.89 -4.33 -266.26 -203.90 -4.33 -264.59 
-203.90 -4.33 -262.92 -203.91 -4.33 -261.25 -203.91 -4.33 -259.56 
-203.92 -4.33 -257.87 -203.92 -4.33 -256.17 -203.93 -4.33 -254.47 
-203.93 -4.33 -252.75 -203.94 -4.33 -251.03 -203.94 -4.33 -249.30 
-203.95 -4.33 -247.56 -203.96 -4.33 -245.82 -203.96 -4.33 -244.07 
-203.97 -4.33 -242.31 -203.97 -4.33 -240.55 -203.98 -4.33 -238.78 
-203.98 -4.33 -237.01 -203.99 -4.33 -235.24 -203.99 -4.33 -233.46 
-204.00 -4.33 -231.69 -204.01 -4.33 -229.91 -204.01 -4.33 -228.14 
-204.02 -4.33 -226.37 -204.02 -4.33 -224.60 -204.03 -4.33 -222.84 
-204.03 -4.33 -221.08 -204.04 -4.33 -219.33 -204.04 -4.33 -217.58 
-204.05 -4.33 -215.84 -204.06 -4.33 -214.11 -204.06 -4.33 -212.39 
-204.07 -4.33 -210.68 -204.07 -4.33 -208.97 -204.08 -4.33 -207.27 
-204.08 -4.33 -205.57 -204.09 -4.33 -203.88 -204.09 -4.33 -202.20 
-204.10 -4.33 -200.52 -204.10 -4.33 -198.84 -204.11 -4.33 -197.17 
-204.11 -4.33 -195.51 -204.12 -4.33 -193.84 -204.12 -4.33 -192.19 
-204.13 -4.33 -190.53 -204.14 -4.33 -188.88 -204.14 -4.33 -187.23 
-204.15 -4.33 -185.59 -204.15 -4.33 -183.95 -204.16 -4.33 -182.31 
-204.16 -4.33 -180.68 -204.17 -4.33 -179.06 -204.17 -4.33 -177.44 
-204.18 -4.33 -175.82 -204.18 -4.33 -174.20 -204.19 -4.33 -172.59 
-204.19 -4.33 -170.98 -204.20 -4.33 -169.38 -204.20 -4.33 -167.77 
-204.21 -4.33 -166.16 -204.21 -4.33 -164.56 -204.22 -4.33 -162.95 
-204.22 -4.33 -161.35 -204.23 -4.33 -159.74 -204.23 -4.33 -158.13 
-204.24 -4.33 -156.52 -204.24 -4.33 -154.91 -204.25 -4.33 -153.30 
-204.25 -4.33 -151.69 -204.26 -4.33 -150.07 -204.26 -4.33 -148.45 
-204.27 -4.33 -146.83 -204.27 -4.33 -145.21 -204.28 -4.33 -143.59 
-204.28 -4.33 -141.97 -204.29 -4.33 -140.35 -204.29 -4.33 -138.73 
-204.30 -4.33 -137.10 -204.30 -4.33 -135.48 -204.31 -4.33 -133.86 
[...]
POINT_DATA 1294
FIELD FieldData 1
MaximumInscribedSphereRadius 1 1294 double
1.46 1.46 1.46 1.46 1.46 1.46 1.46 1.47 1.47 
1.47 1.48 1.48 1.49 1.49 1.49 1.49 1.49 1.50 
1.50 1.50 1.50 1.50 1.50 1.50 1.50 1.50 1.50 
1.50 1.50 1.50 1.50 1.50 1.50 1.50 1.50 1.50 
1.50 1.50 1.50 1.50 1.50 1.50 1.50 1.50 1.50 
1.50 1.50 1.50 1.50 1.50 1.50 1.50 1.50 1.50 
1.50 1.50 1.50 1.50 1.50 1.50 1.50 1.50 1.50 
1.50 1.50 1.50 1.50 1.50 1.50 1.50 1.50 1.50 
1.50 1.50 1.50 1.50 1.50 1.50 1.50 1.50 1.50 
1.50 1.50 1.50 1.50 1.50 1.50 1.50 1.50 1.50 
1.50 1.50 1.50 1.50 1.50 1.50 1.50 1.50 1.50 
1.50 1.50 1.50 1.50 1.50 1.50 1.50 1.50 1.50 
1.50 1.50 1.50 1.50 1.50 1.50 1.50 1.50 1.50 
1.50 1.50 1.50 1.50 1.50 1.50 1.50 1.50 1.50 
1.50 1.50 1.50 1.50 1.50 1.50 1.50 1.50 1.50 
1.50 1.50 1.50 1.50 1.50 1.50 1.50 1.50 1.50 
1.50 1.50 1.50 1.50 1.50 1.50 1.50 1.50 1.50 
1.50 1.50 1.50 1.50 1.50 1.50 1.50 1.50 1.50 
1.50 1.50 1.50 1.50 1.50 1.50 1.50 1.50 1.50 
1.50 1.50 1.50 1.50 1.50 1.50 1.50 1.50 1.50 
1.50 1.50 1.50 1.50 1.50 1.50 1.50 1.50 1.50 
1.50 1.50 1.50 1.50 1.50 1.50 1.50 1.50 1.50 
1.50 1.50 1.50 1.50 1.50 1.50 1.50 1.50 1.50 
1.50 1.50 1.50 1.50 1.50 1.50 1.50 1.50 1.50 
1.50 1.50 1.50 1.50 1.50 1.50 1.50 1.50 1.50 
1.50 1.50 1.50 1.50 1.50 1.50 1.50 1.50 1.50 
1.50 1.50 1.50 1.50 1.50 1.50 1.50 1.50 1.50 
1.50 1.50 1.50 1.50 1.50 1.50 1.50 1.50 1.50 
1.50 1.50 1.50 1.50 1.50 1.50 1.50 1.50 1.50 
1.50 1.49 1.49 1.49 1.49 1.49 1.49 1.49 1.49 
1.49 1.49 1.49 1.49 1.49 1.49 1.49 1.49 1.49 
1.49 1.49 1.49 1.49 1.49 1.49 1.49 1.49 1.49 
1.49 1.49 1.49 1.49 1.49 1.49 1.49 1.49 1.49 
1.49 1.49 1.49 1.49 1.49 1.49 1.49 1.49 1.49 
1.49 1.49 1.49 1.49 1.49 1.49 1.49 1.49 1.49 
1.49 1.49 1.49 1.49 1.49 1.49 1.49 1.49 1.49 
1.49 1.49 1.49 1.49 1.49 1.49 1.49 1.49 1.49 
1.49 1.49 1.49 1.49 1.49 1.49 1.49 1.49 1.49 
1.49 1.49 1.49 1.49 1.49 1.49 1.49 1.49 1.49 
1.49 1.49 1.50 1.50 1.50 1.50 1.50 1.50 1.50 
1.50 1.50 1.50 1.50 1.50 1.50 1.50 1.50 1.50 
1.50 1.50 1.50 1.50 1.50 1.50 1.50 1.50 1.50 
1.50 1.50 1.50 1.50 1.50 1.50 1.50 1.50 1.50 
1.50 1.50 1.50 1.50 1.50 1.50 1.50 1.50 1.50 
1.50 1.50 1.50 1.50 1.50 1.50 1.50 1.50 1.50 
1.50 1.50 1.50 1.50 1.50 1.50 1.50 1.50 1.50 
1.50 1.50 1.50 1.50 1.50 1.50 1.50 1.50 1.50 
1.50 1.50 1.50 1.50 1.50 1.50 1.50 1.50 1.50 
1.50 1.50 1.50 1.50 1.50 1.50 1.50 1.50 1.50 
1.50 1.50 1.50 1.50 1.50 1.50 1.50 1.50 1.50 
1.50 1.50 1.50 1.50 1.50 1.50 1.50 1.50 1.50 
1.50 1.50 1.50 1.50 1.50 1.50 1.50 1.50 1.50 
1.50 1.50 1.50 1.50 1.50 1.50 1.50 1.50 1.50 
1.50 1.50 1.50 1.50 1.50 1.50 1.50 1.50 1.50 
1.50 1.50 1.50 1.50 1.50 1.50 1.50 1.50 1.50 
1.50 1.50 1.50 1.50 1.50 1.50 1.50 1.50 1.50 
1.50 1.50 1.50 1.50 1.50 1.50 1.50 1.50 1.50 
1.50 1.50 1.50 1.50 1.50 1.50 1.50 1.50 1.50 
1.50 1.50 1.50 1.50 1.50 1.50 1.50 1.50 1.50 
1.50 1.50 1.50 1.50 1.50 1.50 1.50 1.50 1.50 
1.50 1.50 1.50 1.50 1.50 1.50 1.50 1.50 1.50 
1.50 1.50 1.50 1.50 1.50 1.50 1.50 1.50 1.50 
1.50 1.50 1.50 1.50 1.50 1.50 1.50 1.50 1.50 
1.50 1.50 1.50 1.50 1.50 1.50 1.50 1.50 1.50 
1.50 1.50 1.50 1.50 1.50 1.50 1.50 1.50 1.50 
1.50 1.50 1.50 1.50 1.50 1.50 1.50 1.50 1.50 
1.50 1.50 1.50 1.50 1.50 1.50 1.50 1.50 1.49 
1.49 1.49 1.49 1.49 1.49 1.49 1.49 1.49 1.49 
1.49 1.49 1.49 1.49 1.49 1.49 1.49 1.49 1.49 
1.49 1.49 1.49 1.49 1.49 1.49 1.49 1.49 1.49 
1.49 1.49 1.49 1.49 1.49 1.49 1.49 1.49 1.49 
1.49 1.49 1.49 1.49 1.49 1.49 1.49 1.49 1.49 
1.49 1.49 1.49 1.49 1.49 1.49 1.49 1.49 1.49 
1.49 1.49 1.49 1.49 1.49 1.49 1.49 1.49 1.49 
1.49 1.49 1.49 1.49 1.49 1.49 1.49 1.49 1.49 
1.49 1.49 1.49 1.49 1.49 1.49 1.49 1.49 1.49 
1.49 1.50 1.50 1.50 1.50 1.50 1.50 1.50 1.50 
1.50 1.50 1.50 1.50 1.50 1.50 1.50 1.50 1.50 
1.50 1.50 1.50 1.50 1.50 1.50 1.50 1.50 1.50 
1.50 1.50 1.50 1.50 1.50 1.50 1.50 1.50 1.50 
1.50 1.50 1.50 1.50 1.50 1.50 1.50 1.50 1.50 
1.50 1.50 1.50 1.50 1.50 1.50 1.50 1.50 1.50 
1.50 1.50 1.50 1.50 1.50 1.50 1.50 1.50 1.50 
1.50 1.50 1.50 1.50 1.50 1.50 1.50 1.50 1.50 
1.50 1.50 1.50 1.50 1.50 1.50 1.50 1.50 1.50 
1.50 1.50 1.50 1.50 1.50 1.50 1.50 1.50 1.50 
1.50 1.50 1.50 1.50 1.50 1.50 1.50 1.50 1.50 
1.50 1.50 1.50 1.50 1.50 1.50 1.50 1.50 1.50 
1.50 1.50 1.50 1.50 1.50 1.50 1.50 1.50 1.50 
1.50 1.50 1.50 1.50 1.50 1.50 1.50 1.50 1.50 
1.50 1.50 1.50 1.50 1.50 1.50 1.50 1.50 1.50 
1.50 1.50 1.50 1.50 1.50 1.50 1.50 1.50 1.50 
1.50 1.50 1.50 1.50 1.50 1.50 1.50 1.50 1.50 
1.50 1.50 1.50 1.50 1.50 1.50 1.50 1.50 1.50 
1.50 1.50 1.50 1.50 1.50 1.50 1.50 1.50 1.50 
1.50 1.50 1.50 1.50 1.50 1.50 1.50 1.50 1.50 
1.50 1.50 1.50 1.50 1.50 1.50 1.50 1.50 1.50 
1.50 1.50 1.50 1.50 1.50 1.50 1.50 1.50 1.50 
1.50 1.50 1.50 1.50 1.50 1.50 1.50 1.50 1.50 
1.50 1.50 1.50 1.50 1.50 1.50 1.50 1.50 1.50 
1.50 1.50 1.50 1.50 1.50 1.50 1.50 1.50 1.50 
1.50 1.50 1.50 1.50 1.50 1.50 1.50 1.50 1.50 
1.50 1.50 1.50 1.50 1.50 1.50 1.50 1.50 1.50 
1.50 1.49 1.49 1.49 1.49 1.49 1.49 1.49 1.49 
1.49 1.49 1.49 1.49 1.49 1.49 1.49 1.49 1.49 
1.49 1.49 1.49 1.49 1.49 1.49 1.49 1.49 1.49 
1.49 1.49 1.49 1.49 1.49 1.49 1.49 1.49 1.49 
1.49 1.49 1.49 1.49 1.49 1.49 1.49 1.49 1.49 
1.49 1.49 1.49 1.49 1.49 1.49 1.49 1.49 1.49 
1.49 1.49 1.49 1.49 1.49 1.49 1.49 1.49 1.49 
1.49 1.49 1.49 1.49 1.49 1.49 1.49 1.49 1.49 
1.49 1.49 1.49 1.49 1.49 1.49 1.49 1.49 1.49 
1.49 1.49 1.49 1.49 1.49 1.49 1.49 1.50 1.50 
1.50 1.50 1.50 1.50 1.50 1.50 1.50 1.50 1.50 
1.50 1.50 1.50 1.50 1.50 1.50 1.50 1.50 1.50 
1.50 1.50 1.50 1.50 1.50 1.50 1.50 1.50 1.50 
1.50 1.50 1.50 1.50 1.50 1.50 1.50 1.50 1.50 
1.50 1.50 1.50 1.50 1.50 1.50 1.50 1.50 1.50 
1.50 1.50 1.50 1.50 1.50 1.50 1.50 1.50 1.50 
1.50 1.50 1.50 1.50 1.50 1.50 1.50 1.50 1.50 
1.50 1.50 1.50 1.50 1.50 1.50 1.50 1.50 1.50 
1.50 1.50 1.50 1.50 1.50 1.50 1.50 1.50 1.50 
1.50 1.50 1.50 1.50 1.50 1.50 1.50 1.50 1.50 
1.50 1.50 1.50 1.50 1.50 1.50 1.50 1.50 1.50 
1.50 1.50 1.50 1.50 1.50 1.50 1.50 1.50 1.50 
1.50 1.50 1.50 1.50 1.50 1.50 1.50 1.50 1.50 
1.50 1.50 1.50 1.50 1.50 1.50 1.50 1.50 1.50 
1.50 1.50 1.50 1.50 1.50 1.50 1.50 1.50 1.50 
1.50 1.50 1.50 1.50 1.50 1.50 1.50 1.50 1.50 
1.50 1.50 1.50 1.50 1.50 1.50 1.50 1.50 1.50 
1.50 1.50 1.50 1.50 1.50 1.50 1.50 1.50 1.50 
1.50 1.50 1.50 1.50 1.50 1.50 1.50 1.50 1.50 
1.50 1.50 1.50 1.50 1.50 1.50 1.50 1.50 1.50 
1.50 1.50 1.50 1.50 1.50 1.50 1.50 1.50 1.50 
1.50 1.50 1.50 1.50 1.50 1.50 1.50 1.50 1.50 
1.50 1.50 1.50 1.50 1.50 1.50 1.50 1.50 1.50 
1.50 1.50 1.50 1.50 1.50 1.50 1.50 1.50 1.50 
1.50 1.50 1.50 1.50 1.50 1.50 1.50 1.50 1.50 
1.50 1.50 1.50 1.50 1.50 1.50 1.50 1.50 1.50 
1.50 1.50 1.50 1.50 1.50 1.50 1.50 1.50 1.50 
1.50 1.50 1.50 1.50 1.50 1.50 1.50 1.50 1.49 
1.49 1.49 1.49 1.49 1.48 1.48 1.48 1.48 1.48 
1.48 1.48 1.48 1.48 1.48 1.48 1.48 1.48 1.47 
1.47 1.46 1.46 1.45 1.45 1.46 1.45 
