# vtk DataFile Version 3.0
vtk output
ASCII
DATASET POLYDATA
POINTS 14 float
1891.42 309.60 1014.65 1889.05 310.09 1016.35 1886.44 310.65 1018.19 
1883.69 311.28 1020.08 1880.92 311.94 1021.96 1878.21 312.61 1023.80 
1875.59 313.26 1025.61 1873.07 313.84 1027.42 1870.68 314.34 1029.22 
1868.42 314.73 1030.98 1866.34 315.01 1032.65 1864.52 315.20 1034.13 
1897.80 308.40 1009.90 1859.72 315.49 1037.97 
LINES 1 15
14 13 11 10 9 8 7 6 5 4 3 2 1 0 12 
POINT_DATA 14
FIELD FieldData 1
MaximumInscribedSphereRadius 1 14 double
34.49 35.06 35.96 37.29 39.06 41.25 43.75 46.42 49.08 
51.56 53.73 55.51 34.18 56.86 
