# vtk DataFile Version 3.0
vtk output
ASCII
DATASET POLYDATA
POINTS 2648 float
-323.50 -6.54 174.75 -323.50 -6.54 173.56 -323.50 -6.54 172.23 
-323.50 -6.54 170.81 -323.50 -6.54 169.31 -323.50 -6.54 167.77 
-323.50 -6.54 166.18 -323.50 -6.54 164.57 -323.50 -6.54 162.93 
-323.50 -6.54 161.26 -323.50 -6.54 159.58 -323.49 -6.54 157.88 
-323.48 -6.54 156.17 -323.47 -6.54 154.46 -323.45 -6.54 152.74 
-323.41 -6.54 151.03 -323.36 -6.54 149.33 -323.28 -6.54 147.64 
-323.17 -6.54 145.97 -323.00 -6.54 144.34 -322.78 -6.54 142.75 
-322.48 -6.55 141.21 -322.09 -6.55 139.75 -321.60 -6.55 138.37 
-320.99 -6.55 137.10 -320.26 -6.55 135.93 -319.40 -6.55 134.89 
-318.42 -6.55 133.97 -317.32 -6.54 133.18 -316.10 -6.54 132.52 
-314.80 -6.54 131.97 -313.41 -6.54 131.54 -311.95 -6.54 131.20 
-310.45 -6.54 130.95 -308.91 -6.54 130.77 -307.34 -6.54 130.63 
-305.76 -6.54 130.54 -304.17 -6.54 130.48 -302.58 -6.54 130.44 
-300.98 -6.54 130.42 -299.38 -6.54 130.40 -297.78 -6.54 130.40 
-296.17 -6.54 130.39 -294.57 -6.54 130.39 -292.96 -6.54 130.39 
-291.35 -6.54 130.39 -289.74 -6.54 130.39 -288.13 -6.54 130.39 
-286.51 -6.54 130.39 -284.88 -6.54 130.39 -283.25 -6.54 130.39 
-281.62 -6.54 130.39 -279.98 -6.54 130.39 -278.34 -6.54 130.39 
-276.70 -6.54 130.39 -275.05 -6.54 130.39 -273.41 -6.54 130.39 
-271.75 -6.54 130.39 -270.10 -6.54 130.39 -268.45 -6.54 130.39 
-266.80 -6.54 130.39 -265.15 -6.54 130.39 -263.49 -6.54 130.39 
-261.84 -6.54 130.39 -260.19 -6.54 130.39 -258.55 -6.54 130.39 
-256.90 -6.54 130.39 -255.25 -6.54 130.39 -253.61 -6.54 130.39 
-251.97 -6.54 130.39 -250.32 -6.54 130.39 -248.68 -6.54 130.39 
-247.04 -6.54 130.39 -245.39 -6.54 130.39 -243.75 -6.54 130.39 
-242.10 -6.54 130.39 -240.46 -6.54 130.39 -238.81 -6.54 130.39 
-237.15 -6.54 130.39 -235.50 -6.54 130.39 -233.84 -6.54 130.39 
-232.18 -6.54 130.39 -230.52 -6.54 130.39 -228.85 -6.54 130.39 
-227.18 -6.54 130.39 -225.51 -6.54 130.39 -223.84 -6.54 130.39 
-222.16 -6.54 130.39 -220.49 -6.54 130.39 -218.81 -6.54 130.39 
-217.14 -6.54 130.39 -215.46 -6.54 130.39 -213.78 -6.54 130.39 
-212.10 -6.54 130.39 -210.42 -6.54 130.39 -208.74 -6.54 130.39 
-207.06 -6.54 130.39 -205.38 -6.54 130.39 -203.69 -6.54 130.39 
-202.01 -6.54 130.39 -200.32 -6.54 130.39 -198.63 -6.54 130.39 
-196.94 -6.54 130.39 -195.24 -6.54 130.39 -193.54 -6.54 130.39 
-191.83 -6.54 130.39 -190.13 -6.54 130.39 -188.41 -6.54 130.39 
-186.70 -6.54 130.39 -184.98 -6.54 130.39 -183.26 -6.54 130.39 
-181.53 -6.54 130.39 -179.80 -6.54 130.39 -178.06 -6.54 130.39 
-176.33 -6.54 130.39 -174.58 -6.54 130.39 -172.84 -6.54 130.39 
-171.09 -6.54 130.39 -169.35 -6.54 130.39 -167.60 -6.54 130.39 
-165.84 -6.54 130.39 -164.09 -6.54 130.39 -162.34 -6.54 130.39 
-160.58 -6.54 130.39 -158.83 -6.54 130.39 -157.08 -6.54 130.39 
-155.32 -6.54 130.39 -153.56 -6.54 130.39 -151.81 -6.54 130.39 
-150.05 -6.54 130.39 -148.30 -6.54 130.39 -146.54 -6.54 130.39 
-144.78 -6.54 130.39 -143.02 -6.54 130.39 -141.26 -6.54 130.39 
-139.49 -6.54 130.39 -137.73 -6.54 130.39 -135.96 -6.54 130.39 
-134.19 -6.54 130.39 -132.42 -6.54 130.39 -130.64 -6.54 130.39 
-128.87 -6.54 130.39 -127.10 -6.54 130.39 -125.33 -6.54 130.39 
-123.56 -6.54 130.39 -121.79 -6.54 130.39 -120.03 -6.54 130.39 
-118.27 -6.54 130.39 -116.51 -6.54 130.39 -114.77 -6.54 130.39 
-113.03 -6.54 130.39 -111.29 -6.54 130.39 -109.57 -6.54 130.39 
-107.85 -6.54 130.39 -106.14 -6.54 130.39 -104.44 -6.54 130.39 
-102.75 -6.54 130.39 -101.07 -6.54 130.39 -99.39 -6.54 130.39 
-97.72 -6.54 130.39 -96.05 -6.54 130.39 -94.40 -6.54 130.39 
-92.74 -6.54 130.39 -91.09 -6.54 130.39 -89.44 -6.54 130.39 
-87.80 -6.54 130.39 -86.15 -6.54 130.39 -84.51 -6.54 130.39 
-82.86 -6.54 130.39 -81.22 -6.54 130.39 -79.57 -6.54 130.39 
-77.92 -6.54 130.39 -76.26 -6.54 130.39 -74.60 -6.54 130.39 
-72.94 -6.54 130.38 -71.27 -6.54 130.38 -69.60 -6.54 130.38 
-67.92 -6.54 130.38 -66.24 -6.54 130.37 -64.56 -6.54 130.36 
-62.87 -6.54 130.35 -61.17 -6.54 130.33 -59.47 -6.54 130.30 
-57.77 -6.54 130.26 -56.07 -6.54 130.21 -54.37 -6.54 130.13 
-52.66 -6.54 130.04 -50.96 -6.54 129.91 -49.27 -6.54 129.74 
-47.58 -6.54 129.54 -45.90 -6.54 129.29 -44.23 -6.54 128.99 
-42.58 -6.54 128.63 -40.94 -6.54 128.22 -39.32 -6.54 127.74 
-37.73 -6.54 127.20 -36.16 -6.54 126.60 -34.63 -6.54 125.93 
-33.12 -6.54 125.19 -31.65 -6.54 124.38 -30.22 -6.54 123.51 
-28.83 -6.54 122.58 -27.48 -6.54 121.58 -26.18 -6.54 120.52 
-24.93 -6.54 119.41 -23.73 -6.54 118.24 -22.58 -6.54 117.01 
-21.49 -6.54 115.74 -20.46 -6.54 114.41 -19.49 -6.54 113.05 
-18.59 -6.54 111.64 -17.75 -6.54 110.19 -16.98 -6.54 108.71 
-16.28 -6.54 107.20 -15.65 -6.54 105.66 -15.09 -6.54 104.10 
-14.61 -6.54 102.52 -14.19 -6.54 100.92 -13.85 -6.54 99.31 
-13.58 -6.54 97.70 -13.38 -6.54 96.08 -13.26 -6.54 94.45 
-13.21 -6.54 92.83 -13.23 -6.54 91.22 -13.32 -6.54 89.61 
-13.48 -6.54 88.01 -13.71 -6.54 86.43 -14.01 -6.54 84.86 
-14.38 -6.54 83.31 -14.81 -6.54 81.79 -15.30 -6.54 80.29 
-15.86 -6.54 78.81 -16.48 -6.54 77.37 -17.15 -6.54 75.96 
-17.89 -6.54 74.58 -18.68 -6.54 73.24 -19.52 -6.54 71.94 
-20.42 -6.54 70.68 -21.37 -6.54 69.45 -22.36 -6.54 68.28 
-23.41 -6.54 67.14 -24.50 -6.54 66.06 -25.63 -6.54 65.02 
-26.80 -6.54 64.03 -28.01 -6.54 63.09 -29.26 -6.54 62.20 
-30.55 -6.54 61.37 -31.87 -6.54 60.59 -33.22 -6.54 59.87 
-34.61 -6.54 59.20 -36.02 -6.54 58.58 -37.47 -6.54 58.03 
-38.93 -6.54 57.52 -40.42 -6.54 57.07 -41.94 -6.54 56.68 
-43.47 -6.54 56.33 -45.02 -6.54 56.04 -46.58 -6.54 55.78 
-48.16 -6.54 55.57 -49.75 -6.54 55.40 -51.35 -6.54 55.26 
-52.95 -6.54 55.15 -54.57 -6.54 55.06 -56.19 -6.54 54.99 
-57.81 -6.54 54.94 -59.44 -6.54 54.89 -61.07 -6.54 54.86 
-62.70 -6.54 54.83 -64.34 -6.54 54.81 -65.97 -6.54 54.79 
-67.61 -6.54 54.77 -69.24 -6.54 54.76 -70.88 -6.54 54.74 
-72.51 -6.54 54.73 -74.14 -6.54 54.72 -75.78 -6.54 54.70 
-77.41 -6.54 54.69 -79.05 -6.54 54.67 -80.68 -6.54 54.66 
-82.32 -6.54 54.65 -83.96 -6.54 54.63 -85.60 -6.54 54.62 
-87.25 -6.54 54.61 -88.90 -6.54 54.59 -90.55 -6.54 54.58 
-92.20 -6.54 54.57 -93.86 -6.54 54.55 -95.51 -6.54 54.54 
-97.17 -6.54 54.52 -98.83 -6.54 54.51 -100.50 -6.54 54.50 
-102.16 -6.54 54.48 -103.82 -6.54 54.47 -105.48 -6.54 54.46 
-107.14 -6.54 54.44 -108.80 -6.54 54.43 -110.46 -6.54 54.42 
-112.12 -6.54 54.40 -113.78 -6.54 54.39 -115.44 -6.54 54.37 
-117.09 -6.54 54.36 -118.75 -6.54 54.35 -120.41 -6.54 54.33 
-122.07 -6.54 54.32 -123.73 -6.54 54.31 -125.39 -6.54 54.29 
-127.06 -6.54 54.28 -128.72 -6.54 54.26 -130.39 -6.54 54.25 
-132.07 -6.54 54.24 -133.75 -6.54 54.22 -135.43 -6.54 54.21 
-137.11 -6.54 54.19 -138.80 -6.54 54.18 -140.50 -6.54 54.17 
-142.19 -6.54 54.15 -143.90 -6.54 54.14 -145.60 -6.54 54.12 
-147.32 -6.54 54.11 -149.03 -6.54 54.10 -150.76 -6.54 54.08 
-152.48 -6.54 54.07 -154.22 -6.54 54.05 -155.95 -6.54 54.04 
-157.70 -6.54 54.02 -159.44 -6.54 54.01 -161.19 -6.54 54.00 
-162.95 -6.54 53.98 -164.71 -6.54 53.97 -166.47 -6.54 53.95 
-168.24 -6.54 53.94 -170.01 -6.54 53.92 -171.78 -6.54 53.91 
-173.55 -6.54 53.89 -175.33 -6.54 53.88 -177.11 -6.54 53.86 
-178.89 -6.54 53.85 -180.68 -6.54 53.84 -182.46 -6.54 53.82 
-184.25 -6.54 53.81 -186.04 -6.54 53.79 -187.82 -6.54 53.78 
-189.62 -6.54 53.76 -191.41 -6.54 53.75 -193.20 -6.54 53.73 
-194.99 -6.54 53.72 -196.79 -6.54 53.70 -198.58 -6.54 53.69 
-200.38 -6.54 53.67 -202.18 -6.54 53.66 -203.97 -6.54 53.64 
-205.77 -6.54 53.63 -207.57 -6.54 53.61 -209.36 -6.54 53.60 
-211.16 -6.54 53.58 -212.96 -6.54 53.57 -214.75 -6.54 53.55 
-216.54 -6.54 53.54 -218.33 -6.54 53.52 -220.12 -6.54 53.51 
-221.90 -6.54 53.49 -223.68 -6.54 53.48 -225.46 -6.54 53.47 
-227.24 -6.54 53.45 -229.01 -6.54 53.44 -230.77 -6.54 53.42 
-232.54 -6.54 53.41 -234.29 -6.54 53.39 -236.04 -6.54 53.38 
-237.79 -6.54 53.36 -239.53 -6.54 53.35 -241.27 -6.54 53.33 
-243.00 -6.54 53.32 -244.72 -6.54 53.31 -246.44 -6.54 53.29 
-248.15 -6.54 53.28 -249.86 -6.54 53.26 -251.56 -6.54 53.25 
-253.25 -6.54 53.24 -254.94 -6.54 53.22 -256.62 -6.54 53.21 
-258.29 -6.54 53.19 -259.97 -6.54 53.17 -261.63 -6.54 53.16 
-263.29 -6.54 53.14 -264.95 -6.54 53.12 -266.60 -6.54 53.09 
-268.24 -6.54 53.06 -269.89 -6.54 53.02 -271.52 -6.54 52.97 
-273.15 -6.54 52.90 -274.78 -6.54 52.82 -276.40 -6.54 52.73 
-278.02 -6.54 52.61 -279.64 -6.54 52.46 -281.24 -6.54 52.28 
-282.85 -6.54 52.07 -284.45 -6.54 51.82 -286.04 -6.54 51.54 
-287.63 -6.54 51.21 -289.20 -6.54 50.84 -290.77 -6.54 50.42 
-292.34 -6.54 49.95 -293.89 -6.54 49.44 -295.42 -6.54 48.88 
-296.95 -6.54 48.28 -298.45 -6.54 47.62 -299.94 -6.54 46.92 
-301.41 -6.54 46.17 -302.85 -6.54 45.38 -304.27 -6.54 44.55 
-305.66 -6.54 43.67 -307.02 -6.54 42.76 -308.35 -6.54 41.80 
-309.65 -6.54 40.81 -310.92 -6.54 39.78 -312.15 -6.54 38.71 
-313.34 -6.54 37.62 -314.49 -6.54 36.49 -315.61 -6.54 35.32 
-316.69 -6.54 34.13 -317.73 -6.54 32.91 -318.73 -6.54 31.66 
-319.68 -6.54 30.38 -320.60 -6.54 29.08 -321.48 -6.54 27.75 
-322.31 -6.54 26.39 -323.11 -6.54 25.02 -323.86 -6.54 23.61 
-324.57 -6.54 22.19 -325.23 -6.54 20.74 -325.85 -6.54 19.28 
-326.43 -6.54 17.79 -326.96 -6.54 16.29 -327.45 -6.54 14.76 
-327.89 -6.54 13.22 -328.28 -6.54 11.66 -328.63 -6.54 10.09 
-328.93 -6.54 8.50 -329.19 -6.54 6.90 -329.39 -6.54 5.29 
-329.54 -6.54 3.67 -329.65 -6.54 2.04 -329.70 -6.54 0.40 
-329.71 -6.54 -1.25 -329.66 -6.54 -2.90 -329.56 -6.54 -4.55 
-329.41 -6.54 -6.20 -329.21 -6.54 -7.84 -328.96 -6.54 -9.49 
-328.66 -6.54 -11.12 -328.31 -6.54 -12.75 -327.91 -6.54 -14.36 
-327.45 -6.54 -15.96 -326.95 -6.54 -17.54 -326.40 -6.54 -19.11 
-325.81 -6.54 -20.66 -325.16 -6.54 -22.18 -324.47 -6.54 -23.69 
-323.74 -6.54 -25.16 -322.96 -6.54 -26.62 -322.14 -6.54 -28.04 
-321.28 -6.54 -29.43 -320.37 -6.54 -30.80 -319.43 -6.54 -32.13 
-318.44 -6.54 -33.43 -317.42 -6.54 -34.70 -316.36 -6.54 -35.93 
-315.27 -6.54 -37.13 -314.14 -6.54 -38.29 -312.97 -6.54 -39.42 
-311.78 -6.54 -40.51 -310.55 -6.54 -41.56 -309.29 -6.54 -42.57 
-308.01 -6.54 -43.54 -306.69 -6.54 -44.47 -305.35 -6.54 -45.36 
-303.98 -6.54 -46.21 -302.59 -6.54 -47.01 -301.17 -6.54 -47.77 
[...]
POINT_DATA 2648
FIELD FieldData 1
MaximumInscribedSphereRadius 1 2648 double
1.75 1.75 1.75 1.75 1.75 1.75 1.75 1.75 1.75 
1.75 1.75 1.75 1.75 1.75 1.75 1.75 1.75 1.74 
1.74 1.74 1.74 1.73 1.73 1.73 1.72 1.72 1.72 
1.72 1.72 1.72 1.72 1.72 1.73 1.73 1.73 1.74 
1.74 1.74 1.74 1.75 1.75 1.75 1.75 1.75 1.75 
1.75 1.75 1.75 1.75 1.75 1.75 1.75 1.75 1.75 
1.75 1.75 1.75 1.75 1.75 1.75 1.75 1.75 1.75 
1.75 1.75 1.75 1.75 1.75 1.75 1.75 1.75 1.75 
1.75 1.75 1.75 1.75 1.75 1.75 1.75 1.75 1.75 
1.75 1.75 1.75 1.75 1.75 1.75 1.75 1.75 1.75 
1.75 1.75 1.75 1.75 1.75 1.75 1.75 1.75 1.75 
1.75 1.75 1.75 1.75 1.75 1.75 1.75 1.75 1.75 
1.75 1.75 1.75 1.75 1.75 1.75 1.75 1.75 1.75 
1.75 1.75 1.75 1.75 1.75 1.75 1.75 1.75 1.75 
1.75 1.75 1.75 1.75 1.75 1.75 1.75 1.75 1.75 
1.75 1.75 1.75 1.75 1.75 1.75 1.75 1.75 1.75 
1.75 1.75 1.75 1.75 1.75 1.75 1.75 1.75 1.75 
1.75 1.75 1.75 1.75 1.75 1.75 1.75 1.75 1.75 
1.75 1.75 1.75 1.75 1.75 1.75 1.75 1.75 1.75 
1.75 1.75 1.75 1.75 1.75 1.75 1.75 1.75 1.75 
1.75 1.75 1.75 1.75 1.75 1.74 1.74 1.74 1.74 
1.74 1.74 1.74 1.74 1.74 1.73 1.73 1.73 1.73 
1.73 1.73 1.73 1.73 1.73 1.73 1.73 1.73 1.73 
1.73 1.73 1.73 1.73 1.73 1.73 1.73 1.73 1.73 
1.73 1.73 1.73 1.73 1.74 1.74 1.74 1.74 1.74 
1.74 1.74 1.74 1.74 1.74 1.74 1.74 1.74 1.74 
1.74 1.74 1.74 1.74 1.74 1.74 1.74 1.74 1.74 
1.74 1.74 1.74 1.74 1.74 1.74 1.74 1.74 1.74 
1.74 1.74 1.74 1.74 1.74 1.74 1.74 1.75 1.75 
1.75 1.75 1.75 1.75 1.75 1.75 1.75 1.75 1.75 
1.75 1.75 1.75 1.75 1.75 1.75 1.75 1.75 1.75 
1.75 1.75 1.75 1.75 1.75 1.75 1.75 1.75 1.75 
1.75 1.75 1.75 1.75 1.75 1.75 1.75 1.75 1.75 
1.75 1.75 1.75 1.75 1.75 1.75 1.75 1.75 1.75 
1.75 1.75 1.75 1.75 1.75 1.75 1.75 1.75 1.75 
1.75 1.75 1.75 1.75 1.75 1.75 1.75 1.75 1.75 
1.75 1.75 1.75 1.75 1.75 1.75 1.75 1.75 1.75 
1.75 1.75 1.75 1.75 1.75 1.75 1.75 1.75 1.75 
1.75 1.75 1.75 1.75 1.75 1.75 1.75 1.75 1.75 
1.75 1.75 1.75 1.75 1.75 1.75 1.75 1.75 1.75 
1.75 1.75 1.75 1.75 1.75 1.75 1.75 1.75 1.75 
1.75 1.75 1.75 1.75 1.75 1.75 1.75 1.75 1.75 
1.75 1.75 1.75 1.75 1.75 1.75 1.75 1.75 1.75 
1.75 1.75 1.75 1.75 1.75 1.74 1.74 1.74 1.74 
1.74 1.74 1.74 1.74 1.74 1.74 1.74 1.74 1.74 
1.74 1.74 1.74 1.74 1.74 1.74 1.74 1.74 1.74 
1.74 1.74 1.74 1.74 1.74 1.74 1.74 1.74 1.74 
1.74 1.74 1.74 1.74 1.74 1.74 1.74 1.74 1.74 
1.74 1.74 1.74 1.74 1.74 1.74 1.74 1.74 1.74 
1.74 1.74 1.74 1.74 1.74 1.74 1.74 1.74 1.74 
1.74 1.74 1.74 1.74 1.74 1.74 1.74 1.74 1.74 
1.74 1.74 1.74 1.74 1.74 1.74 1.74 1.74 1.74 
1.74 1.74 1.74 1.74 1.74 1.74 1.74 1.74 1.74 
1.74 1.74 1.74 1.74 1.74 1.74 1.74 1.74 1.74 
1.74 1.74 1.74 1.74 1.74 1.74 1.74 1.74 1.75 
1.75 1.75 1.75 1.75 1.75 1.75 1.75 1.75 1.75 
1.75 1.75 1.75 1.75 1.75 1.75 1.75 1.75 1.75 
1.75 1.75 1.75 1.75 1.75 1.75 1.75 1.75 1.75 
1.75 1.75 1.75 1.75 1.75 1.75 1.75 1.75 1.75 
1.75 1.75 1.75 1.75 1.75 1.75 1.75 1.75 1.75 
1.75 1.75 1.75 1.75 1.75 1.75 1.75 1.75 1.75 
1.75 1.75 1.75 1.75 1.75 1.75 1.75 1.75 1.75 
1.75 1.75 1.75 1.75 1.75 1.75 1.75 1.75 1.75 
1.75 1.75 1.75 1.75 1.75 1.75 1.75 1.75 1.75 
1.75 1.75 1.75 1.75 1.75 1.75 1.75 1.75 1.75 
1.75 1.75 1.75 1.75 1.75 1.75 1.75 1.75 1.75 
1.75 1.75 1.75 1.75 1.75 1.75 1.75 1.75 1.75 
1.75 1.75 1.75 1.75 1.75 1.75 1.75 1.75 1.75 
1.75 1.75 1.75 1.75 1.75 1.75 1.75 1.75 1.75 
1.75 1.75 1.75 1.75 1.75 1.75 1.75 1.75 1.74 
1.74 1.74 1.74 1.74 1.74 1.74 1.74 1.74 1.74 
1.73 1.73 1.73 1.73 1.73 1.73 1.73 1.73 1.73 
1.73 1.73 1.73 1.73 1.73 1.73 1.73 1.73 1.73 
1.73 1.73 1.73 1.73 1.73 1.73 1.73 1.73 1.73 
1.73 1.73 1.73 1.73 1.73 1.73 1.73 1.73 1.73 
1.73 1.73 1.73 1.73 1.73 1.73 1.73 1.73 1.73 
1.73 1.73 1.73 1.73 1.73 1.73 1.73 1.73 1.73 
1.73 1.73 1.73 1.74 1.74 1.74 1.74 1.74 1.74 
1.74 1.74 1.74 1.74 1.75 1.75 1.75 1.75 1.75 
1.75 1.75 1.75 1.75 1.75 1.75 1.75 1.75 1.75 
1.75 1.75 1.75 1.75 1.75 1.75 1.75 1.75 1.75 
1.75 1.75 1.75 1.75 1.75 1.75 1.75 1.75 1.75 
1.75 1.75 1.75 1.75 1.75 1.75 1.75 1.75 1.75 
1.75 1.75 1.75 1.75 1.75 1.75 1.75 1.75 1.75 
1.75 1.75 1.75 1.75 1.75 1.75 1.75 1.75 1.75 
1.75 1.75 1.75 1.75 1.75 1.75 1.75 1.75 1.75 
1.75 1.75 1.75 1.75 1.75 1.75 1.75 1.75 1.75 
1.75 1.75 1.75 1.75 1.75 1.75 1.75 1.75 1.75 
1.75 1.75 1.75 1.75 1.75 1.75 1.75 1.75 1.75 
1.75 1.75 1.75 1.75 1.75 1.75 1.75 1.75 1.75 
1.75 1.75 1.75 1.75 1.75 1.75 1.75 1.75 1.75 
1.75 1.75 1.75 1.75 1.75 1.75 1.75 1.75 1.75 
1.75 1.75 1.75 1.75 1.75 1.75 1.75 1.75 1.75 
1.75 1.74 1.74 1.74 1.74 1.74 1.74 1.74 1.74 
1.74 1.74 1.74 1.74 1.74 1.74 1.74 1.74 1.74 
1.74 1.74 1.74 1.74 1.74 1.74 1.74 1.74 1.74 
1.74 1.74 1.74 1.74 1.74 1.74 1.74 1.74 1.74 
1.74 1.74 1.74 1.74 1.74 1.74 1.74 1.74 1.74 
1.74 1.74 1.74 1.74 1.74 1.74 1.74 1.74 1.74 
1.74 1.74 1.74 1.74 1.74 1.74 1.74 1.74 1.74 
1.74 1.74 1.74 1.74 1.74 1.74 1.74 1.74 1.74 
1.74 1.74 1.74 1.74 1.74 1.74 1.74 1.74 1.74 
1.74 1.74 1.74 1.74 1.74 1.74 1.74 1.74 1.74 
1.74 1.74 1.74 1.74 1.74 1.74 1.74 1.74 1.74 
1.74 1.74 1.74 1.75 1.75 1.75 1.75 1.75 1.75 
1.75 1.75 1.75 1.75 1.75 1.75 1.75 1.75 1.75 
1.75 1.75 1.75 1.75 1.75 1.75 1.75 1.75 1.75 
1.75 1.75 1.75 1.75 1.75 1.75 1.75 1.75 1.75 
1.75 1.75 1.75 1.75 1.75 1.75 1.75 1.75 1.75 
1.75 1.75 1.75 1.75 1.75 1.75 1.75 1.75 1.75 
1.75 1.75 1.75 1.75 1.75 1.75 1.75 1.75 1.75 
1.75 1.75 1.75 1.75 1.75 1.75 1.75 1.75 1.75 
1.75 1.75 1.75 1.75 1.75 1.75 1.75 1.75 1.75 
1.75 1.75 1.75 1.75 1.75 1.75 1.75 1.75 1.75 
1.75 1.75 1.75 1.75 1.75 1.75 1.75 1.75 1.75 
1.75 1.75 1.75 1.75 1.75 1.75 1.75 1.75 1.75 
1.75 1.75 1.75 1.75 1.75 1.75 1.75 1.75 1.75 
1.75 1.75 1.75 1.75 1.75 1.75 1.75 1.75 1.75 
1.75 1.75 1.75 1.75 1.75 1.75 1.75 1.75 1.75 
1.75 1.75 1.74 1.74 1.74 1.74 1.74 1.74 1.74 
1.74 1.74 1.74 1.74 1.73 1.73 1.73 1.73 1.73 
1.73 1.73 1.73 1.73 1.73 1.73 1.73 1.73 1.73 
1.73 1.73 1.73 1.73 1.73 1.73 1.73 1.73 1.73 
1.73 1.73 1.73 1.73 1.73 1.73 1.73 1.73 1.73 
1.73 1.73 1.73 1.73 1.73 1.73 1.73 1.73 1.73 
1.73 1.73 1.73 1.73 1.73 1.73 1.73 1.73 1.73 
1.73 1.73 1.73 1.73 1.73 1.73 1.74 1.74 1.74 
1.74 1.74 1.74 1.74 1.74 1.74 1.74 1.75 1.75 
1.75 1.75 1.75 1.75 1.75 1.75 1.75 1.75 1.75 
1.75 1.75 1.75 1.75 1.75 1.75 1.75 1.75 1.75 
1.75 1.75 1.75 1.75 1.75 1.75 1.75 1.75 1.75 
1.75 1.75 1.75 1.75 1.75 1.75 1.75 1.75 1.75 
1.75 1.75 1.75 1.75 1.75 1.75 1.75 1.75 1.75 
1.75 1.75 1.75 1.75 1.75 1.75 1.75 1.75 1.75 
1.75 1.75 1.75 1.75 1.75 1.75 1.75 1.75 1.75 
1.75 1.75 1.75 1.75 1.75 1.75 1.75 1.75 1.75 
1.75 1.75 1.75 1.75 1.75 1.75 1.75 1.75 1.75 
1.75 1.75 1.75 1.75 1.75 1.75 1.75 1.75 1.75 
1.75 1.75 1.75 1.75 1.75 1.75 1.75 1.75 1.75 
1.75 1.75 1.75 1.75 1.75 1.75 1.75 1.75 1.75 
1.75 1.75 1.75 1.75 1.75 1.75 1.75 1.75 1.75 
1.75 1.75 1.75 1.75 1.75 1.75 1.75 1.75 1.75 
1.75 1.75 1.75 1.75 1.75 1.75 1.75 1.75 1.75 
1.75 1.75 1.75 1.75 1.75 1.75 1.75 1.75 1.75 
1.75 1.75 1.75 1.75 1.75 1.75 1.75 1.75 1.75 
1.75 1.74 1.74 1.74 1.73 1.73 1.72 1.72 1.71 
1.71 1.70 1.70 1.69 1.69 1.68 1.68 1.68 1.69 
1.69 1.70 1.70 1.71 1.72 1.72 1.73 1.73 1.74 
1.74 1.74 1.75 1.75 1.75 1.75 1.75 1.75 1.75 
1.75 1.75 1.75 1.75 1.75 1.75 1.75 1.75 1.75 
1.75 1.75 1.75 1.75 1.75 1.75 1.75 1.75 1.75 
1.75 1.75 1.75 1.75 1.75 1.75 1.75 1.75 1.75 
1.75 1.75 1.75 1.75 1.75 1.75 1.75 1.75 1.75 
1.75 1.75 1.75 1.75 1.75 1.75 1.75 1.75 1.75 
1.75 1.75 1.75 1.75 1.75 1.75 1.75 1.75 1.75 
1.75 1.75 1.75 1.75 1.75 1.75 1.75 1.75 1.75 
1.75 1.75 1.75 1.75 1.75 1.75 1.75 1.75 1.75 
1.75 1.75 1.75 1.75 1.75 1.75 1.75 1.75 1.75 
1.75 1.75 1.75 1.75 1.75 1.75 1.75 1.75 1.75 
1.75 1.75 1.75 1.75 1.75 1.75 1.75 1.75 1.75 
1.75 1.75 1.75 1.75 1.75 1.75 1.75 1.75 1.75 
1.75 1.75 1.75 1.75 1.75 1.75 1.75 1.75 1.75 
1.75 1.75 1.75 1.75 1.75 1.75 1.75 1.75 1.75 
1.75 1.75 1.75 1.75 1.75 1.75 1.75 1.75 1.75 
1.75 1.75 1.75 1.75 1.75 1.75 1.75 1.75 1.75 
1.75 1.74 1.74 1.74 1.74 1.74 1.74 1.74 1.74 
1.74 1.74 1.74 1.74 1.74 1.74 1.74 1.74 1.74 
1.74 1.74 1.74 1.74 1.74 1.74 1.74 1.74 1.74 
1.74 1.74 1.74 1.74 1.74 1.74 1.74 1.74 1.74 
1.74 1.74 1.74 1.74 1.74 1.74 1.74 1.74 1.74 
1.74 1.74 1.74 1.74 1.74 1.74 1.74 1.74 1.74 
1.74 1.74 1.74 1.74 1.74 1.74 1.74 1.74 1.74 
1.74 1.74 1.74 1.74 1.74 1.74 1.74 1.74 1.74 
1.74 1.74 1.74 1.74 1.74 1.74 1.74 1.74 1.74 
1.74 1.74 1.74 1.74 1.74 1.74 1.74 1.74 1.74 
1.75 1.75 1.75 1.75 1.75 1.75 1.75 1.75 1.75 
1.75 1.75 1.75 1.75 1.75 1.75 1.75 1.75 1.75 
1.75 1.75 1.75 1.75 1.75 1.75 1.75 1.75 1.75 
1.75 1.75 1.75 1.75 1.75 1.75 1.75 1.75 1.75 
1.75 1.75 1.75 1.75 1.75 1.75 1.75 1.75 1.75 
1.75 1.75 1.75 1.75 1.75 1.75 1.75 1.75 1.75 
1.75 1.75 1.75 1.75 1.75 1.75 1.75 1.75 1.75 
1.75 1.75 1.75 1.75 1.75 1.75 1.75 1.75 1.75 
1.75 1.75 1.75 1.75 1.75 1.75 1.75 1.75 1.75 
1.75 1.75 1.75 1.75 1.75 1.75 1.75 1.75 1.75 
1.75 1.75 1.75 1.75 1.75 1.75 1.75 1.75 1.75 
1.75 1.75 1.75 1.75 1.75 1.75 1.75 1.75 1.75 
1.75 1.75 1.75 1.75 1.75 1.75 1.75 1.75 1.75 
1.75 1.75 1.75 1.75 1.75 1.75 1.75 1.75 1.75 
1.75 1.75 1.75 1.75 1.75 1.75 1.75 1.75 1.75 
1.75 1.75 1.75 1.75 1.74 1.74 1.74 1.74 1.74 
1.74 1.74 1.74 1.74 1.74 1.74 1.74 1.74 1.74 
1.74 1.74 1.74 1.74 1.74 1.74 1.74 1.74 1.74 
1.74 1.74 1.74 1.74 1.74 1.74 1.74 1.74 1.74 
1.74 1.74 1.74 1.74 1.74 1.74 1.74 1.74 1.74 
1.74 1.74 1.74 1.74 1.74 1.74 1.74 1.74 1.74 
1.74 1.74 1.74 1.74 1.74 1.74 1.74 1.74 1.74 
1.74 1.74 1.74 1.74 1.74 1.74 1.74 1.74 1.74 
1.74 1.74 1.74 1.74 1.74 1.74 1.74 1.74 1.74 
1.74 1.74 1.74 1.74 1.74 1.74 1.74 1.74 1.74 
1.75 1.75 1.75 1.75 1.75 1.75 1.75 1.75 1.75 
1.75 1.75 1.75 1.75 1.75 1.75 1.75 1.75 1.75 
1.75 1.75 1.75 1.75 1.75 1.75 1.75 1.75 1.75 
1.75 1.75 1.75 1.75 1.75 1.75 1.75 1.75 1.75 
1.75 1.75 1.75 1.75 1.75 1.75 1.75 1.75 1.75 
1.75 1.75 1.75 1.75 1.75 1.75 1.75 1.75 1.75 
1.75 1.75 1.75 1.75 1.75 1.75 1.75 1.75 1.75 
1.75 1.75 1.75 1.75 1.75 1.75 1.75 1.75 1.75 
1.75 1.75 1.75 1.75 1.75 1.75 1.75 1.75 1.75 
1.75 1.75 1.75 1.75 1.75 1.75 1.75 1.75 1.75 
1.75 1.75 1.75 1.75 1.75 1.75 1.75 1.75 1.75 
1.75 1.75 1.75 1.75 1.75 1.75 1.75 1.75 1.75 
1.75 1.75 1.75 1.75 1.75 1.75 1.75 1.75 1.75 
1.75 1.75 1.75 1.75 1.75 1.75 1.75 1.75 1.75 
1.75 1.75 1.75 1.75 1.75 1.75 1.75 1.75 1.74 
1.74 1.74 1.74 1.74 1.74 1.74 1.74 1.74 1.74 
1.74 1.74 1.74 1.74 1.74 1.74 1.74 1.74 1.74 
1.74 1.74 1.74 1.74 1.74 1.74 1.74 1.74 1.74 
1.74 1.74 1.74 1.74 1.74 1.74 1.74 1.74 1.74 
1.74 1.74 1.74 1.74 1.74 1.74 1.74 1.74 1.74 
1.74 1.74 1.74 1.74 1.74 1.74 1.74 1.74 1.74 
1.74 1.74 1.74 1.74 1.74 1.74 1.74 1.74 1.74 
1.74 1.74 1.74 1.74 1.74 1.74 1.74 1.74 1.74 
1.74 1.74 1.74 1.74 1.74 1.74 1.74 1.74 1.74 
1.74 1.74 1.74 1.74 1.74 1.74 1.74 1.74 1.74 
1.74 1.75 1.75 1.75 1.75 1.75 1.75 1.75 1.75 
1.75 1.75 1.75 1.75 1.75 1.75 1.75 1.75 1.75 
1.75 1.75 1.75 1.75 1.75 1.75 1.75 1.75 1.75 
1.75 1.75 1.75 1.75 1.75 1.75 1.75 1.75 1.75 
1.75 1.75 1.75 1.75 1.75 1.75 1.75 1.75 1.75 
1.75 1.75 1.75 1.75 1.75 1.75 1.75 1.75 1.75 
1.75 1.75 1.75 1.75 1.75 1.75 1.75 1.75 1.75 
1.75 1.75 1.75 1.75 1.75 1.75 1.75 1.75 1.75 
1.75 1.75 1.75 1.75 1.75 1.75 1.75 1.75 1.75 
1.75 1.75 1.75 1.75 1.75 1.75 1.75 1.75 1.75 
1.75 1.75 1.75 1.75 1.75 1.75 1.75 1.75 1.75 
1.75 1.75 1.75 1.75 1.75 1.75 1.75 1.75 1.75 
1.75 1.75 1.75 1.75 1.75 1.75 1.75 1.75 1.75 
1.75 1.75 1.75 1.75 1.75 1.75 1.75 1.75 1.75 
1.75 1.75 1.75 1.75 1.75 1.75 1.74 1.74 1.74 
1.74 1.74 1.74 1.74 1.74 1.74 1.74 1.74 1.74 
1.74 1.74 1.74 1.74 1.74 1.74 1.74 1.74 1.74 
1.74 1.74 1.74 1.74 1.74 1.74 1.74 1.74 1.74 
1.74 1.74 1.74 1.74 1.74 1.74 1.74 1.74 1.74 
1.74 1.74 1.74 1.74 1.74 1.74 1.74 1.74 1.74 
1.74 1.74 1.74 1.74 1.74 1.74 1.74 1.74 1.74 
1.74 1.74 1.74 1.74 1.74 1.74 1.74 1.74 1.74 
1.74 1.74 1.74 1.74 1.74 1.74 1.74 1.74 1.74 
1.74 1.74 1.74 1.74 1.74 1.74 1.74 1.74 1.74 
1.74 1.74 1.75 1.75 1.75 1.75 1.75 1.75 1.75 
1.75 1.75 1.75 1.75 1.75 1.75 1.75 1.75 1.75 
1.75 1.75 1.75 1.75 1.75 1.75 1.75 1.75 1.75 
1.75 1.75 1.75 1.75 1.75 1.75 1.75 1.75 1.75 
1.75 1.75 1.75 1.75 1.75 1.75 1.75 1.75 1.75 
1.75 1.75 1.75 1.75 1.75 1.75 1.75 1.75 1.75 
1.75 1.75 1.75 1.75 1.75 1.75 1.75 1.75 1.75 
1.75 1.75 1.75 1.75 1.75 1.75 1.75 1.75 1.75 
1.75 1.75 1.75 1.75 1.75 1.75 1.75 1.75 1.75 
1.75 1.75 1.75 1.75 1.75 1.75 1.75 1.75 1.75 
1.75 1.75 1.75 1.75 1.75 1.75 1.75 1.75 1.75 
1.75 1.75 1.75 1.75 1.75 1.75 1.75 1.75 1.75 
1.75 1.75 1.75 1.75 1.75 1.75 1.75 1.75 1.75 
1.75 1.75 1.75 1.75 1.75 1.75 1.75 1.75 1.75 
1.75 1.75 1.75 1.75 1.75 1.75 1.75 1.74 1.74 
1.74 1.74 1.74 1.74 1.74 1.74 1.74 1.74 1.74 
1.74 1.74 1.74 1.74 1.74 1.74 1.74 1.74 1.74 
1.74 1.74 1.74 1.74 1.74 1.74 1.74 1.74 1.74 
1.74 1.74 1.74 1.74 1.74 1.74 1.74 1.74 1.74 
1.74 1.74 1.74 1.74 1.74 1.74 1.74 1.74 1.74 
1.74 1.74 1.74 1.74 1.74 1.74 1.74 1.74 1.74 
1.74 1.74 1.74 1.74 1.74 1.74 1.74 1.74 1.74 
1.74 1.74 1.74 1.74 1.74 1.74 1.74 1.74 1.74 
1.74 1.74 1.74 1.74 1.74 1.74 1.74 1.74 1.74 
1.74 1.74 1.74 1.74 1.74 1.74 1.74 1.74 1.74 
1.74 1.75 1.75 1.75 1.75 1.75 1.75 1.75 1.75 
1.75 1.75 1.75 1.75 1.75 1.75 1.75 1.75 1.75 
1.75 1.75 1.75 1.75 1.75 1.75 1.75 1.75 1.75 
1.75 1.75 1.75 1.75 1.75 1.75 1.75 1.75 1.75 
1.75 1.75 1.75 1.75 1.75 1.75 1.75 1.75 1.75 
1.75 1.75 1.75 1.75 1.75 1.75 1.75 1.75 1.75 
1.75 1.75 1.75 1.75 1.75 1.75 1.75 1.75 1.75 
1.75 1.75 1.75 1.75 1.75 1.75 1.75 1.75 1.75 
1.75 1.75 1.75 1.75 1.75 1.75 1.75 1.75 1.75 
1.75 1.75 1.75 1.75 1.75 1.75 1.75 1.75 1.75 
1.75 1.75 1.75 1.75 1.75 1.75 1.75 1.75 1.75 
1.75 1.75 1.75 1.75 1.75 1.75 1.75 1.75 1.75 
1.75 1.75 1.75 1.75 1.75 1.75 1.75 1.75 1.75 
1.75 1.75 1.75 1.75 1.75 1.75 1.75 1.75 1.75 
1.75 1.75 1.75 1.75 1.75 1.75 1.75 1.75 1.75 
1.75 1.75 1.75 1.75 1.75 1.75 1.75 1.75 1.75 
1.75 1.75 1.75 1.75 1.75 1.75 1.75 1.75 1.75 
1.75 1.75 1.75 1.75 1.76 1.76 1.76 1.75 1.75 
1.75 1.75 1.75 1.75 1.75 1.75 1.75 1.75 1.75 
1.75 1.75 1.75 1.75 1.75 1.75 1.75 1.75 1.75 
1.75 1.75 
