# vtk DataFile Version 3.0
vtk output
ASCII
DATASET POLYDATA
POINTS 4 float
1704.95 335.92 1151.68 1706.71 335.67 1150.38 1699.03 336.77 1156.03 
1712.63 334.82 1146.03 
LINES 1 5
4 3 1 0 2 
POINT_DATA 4
FIELD FieldData 1
MaximumInscribedSphereRadius 1 4 double
62.81 62.81 62.81 62.81 
