# vtk DataFile Version 3.0
vtk output
ASCII
DATASET POLYDATA
POINTS 1094 float
-296.72 -4.54 173.15 -296.70 -4.54 171.40 -296.67 -4.54 169.46 
-296.61 -4.54 167.40 -296.52 -4.54 165.26 -296.39 -4.54 163.08 
-296.21 -4.55 160.89 -295.94 -4.55 158.71 -295.57 -4.55 156.57 
-295.09 -4.55 154.49 -294.46 -4.55 152.51 -293.68 -4.55 150.65 
-292.72 -4.55 148.93 -291.58 -4.55 147.38 -290.25 -4.55 146.00 
-288.74 -4.55 144.81 -287.07 -4.55 143.81 -285.24 -4.55 142.98 
-283.28 -4.55 142.32 -281.20 -4.55 141.80 -279.04 -4.54 141.41 
-276.82 -4.54 141.12 -274.54 -4.54 140.92 -272.22 -4.54 140.77 
-269.88 -4.54 140.68 -267.51 -4.54 140.61 -265.14 -4.54 140.57 
-262.75 -4.54 140.55 -260.36 -4.54 140.53 -257.96 -4.54 140.53 
-255.55 -4.54 140.52 -253.14 -4.54 140.52 -250.73 -4.54 140.51 
-248.31 -4.54 140.51 -245.90 -4.54 140.51 -243.49 -4.54 140.51 
-241.09 -4.54 140.51 -238.69 -4.54 140.50 -236.31 -4.54 140.50 
-233.95 -4.54 140.50 -231.60 -4.54 140.50 -229.28 -4.54 140.50 
-226.99 -4.54 140.50 -224.73 -4.54 140.50 -222.50 -4.54 140.49 
-220.31 -4.54 140.49 -218.16 -4.54 140.49 -216.05 -4.54 140.49 
-213.97 -4.54 140.49 -211.94 -4.54 140.49 -209.94 -4.54 140.49 
-207.97 -4.54 140.49 -206.03 -4.54 140.48 -204.12 -4.54 140.48 
-202.23 -4.54 140.48 -200.35 -4.54 140.48 -198.49 -4.54 140.48 
-196.64 -4.54 140.48 -194.78 -4.54 140.48 -192.92 -4.54 140.48 
-191.05 -4.54 140.47 -189.16 -4.54 140.47 -187.25 -4.54 140.47 
-185.32 -4.54 140.47 -183.36 -4.54 140.47 -181.36 -4.54 140.47 
-179.33 -4.54 140.47 -177.26 -4.54 140.47 -175.16 -4.54 140.46 
-173.01 -4.54 140.46 -170.83 -4.54 140.46 -168.61 -4.54 140.46 
-166.35 -4.54 140.46 -164.06 -4.54 140.46 -161.74 -4.54 140.46 
-159.39 -4.54 140.46 -157.01 -4.54 140.45 -154.62 -4.54 140.45 
-152.20 -4.54 140.45 -149.77 -4.54 140.45 -147.32 -4.54 140.45 
-144.87 -4.54 140.45 -142.40 -4.54 140.44 -139.93 -4.54 140.44 
-137.45 -4.54 140.44 -134.96 -4.54 140.44 -132.47 -4.54 140.44 
-129.98 -4.54 140.44 -127.48 -4.54 140.43 -124.97 -4.54 140.43 
-122.46 -4.54 140.43 -119.94 -4.54 140.43 -117.42 -4.54 140.43 
-114.88 -4.54 140.43 -112.33 -4.54 140.43 -109.78 -4.54 140.42 
-107.21 -4.54 140.42 -104.63 -4.54 140.42 -102.05 -4.54 140.42 
-99.45 -4.54 140.42 -96.85 -4.54 140.42 -94.24 -4.54 140.41 
-91.62 -4.54 140.41 -89.01 -4.54 140.41 -86.39 -4.54 140.41 
-83.77 -4.54 140.41 -81.16 -4.54 140.40 -78.55 -4.54 140.40 
-75.96 -4.54 140.39 -73.37 -4.54 140.38 -70.80 -4.54 140.37 
-68.24 -4.54 140.34 -65.69 -4.54 140.31 -63.17 -4.54 140.26 
-60.66 -4.54 140.20 -58.17 -4.54 140.11 -55.71 -4.54 139.99 
-53.27 -4.54 139.83 -50.85 -4.54 139.63 -48.47 -4.54 139.37 
-46.11 -4.54 139.06 -43.79 -4.54 138.68 -41.51 -4.54 138.22 
-39.26 -4.54 137.69 -37.06 -4.54 137.07 -34.90 -4.54 136.37 
-32.79 -4.54 135.59 -30.74 -4.54 134.72 -28.75 -4.54 133.77 
-26.81 -4.54 132.73 -24.95 -4.54 131.62 -23.15 -4.54 130.44 
-21.42 -4.54 129.18 -19.76 -4.54 127.85 -18.18 -4.54 126.46 
-16.67 -4.54 125.01 -15.24 -4.54 123.50 -13.89 -4.54 121.93 
-12.62 -4.54 120.32 -11.42 -4.54 118.65 -10.31 -4.54 116.93 
-9.28 -4.54 115.17 -8.33 -4.54 113.36 -7.46 -4.54 111.51 
-6.67 -4.54 109.62 -5.97 -4.54 107.69 -5.35 -4.54 105.72 
-4.82 -4.54 103.73 -4.37 -4.54 101.70 -4.02 -4.54 99.65 
-3.76 -4.54 97.59 -3.59 -4.54 95.50 -3.51 -4.54 93.41 
-3.53 -4.54 91.31 -3.64 -4.54 89.21 -3.85 -4.54 87.11 
-4.15 -4.54 85.02 -4.55 -4.54 82.95 -5.04 -4.54 80.89 
-5.63 -4.54 78.86 -6.30 -4.54 76.86 -7.07 -4.54 74.89 
-7.93 -4.54 72.95 -8.87 -4.54 71.06 -9.90 -4.54 69.21 
-11.02 -4.54 67.41 -12.21 -4.54 65.67 -13.49 -4.54 63.97 
-14.85 -4.54 62.34 -16.28 -4.54 60.77 -17.79 -4.54 59.26 
-19.37 -4.54 57.83 -21.02 -4.54 56.46 -22.74 -4.54 55.17 
-24.52 -4.54 53.95 -26.36 -4.54 52.81 -28.27 -4.54 51.76 
-30.23 -4.54 50.78 -32.25 -4.54 49.90 -34.31 -4.54 49.09 
-36.42 -4.54 48.38 -38.57 -4.54 47.74 -40.76 -4.54 47.19 
-42.98 -4.54 46.71 -45.24 -4.54 46.31 -47.52 -4.54 45.97 
-49.83 -4.54 45.69 -52.16 -4.54 45.47 -54.51 -4.54 45.29 
-56.87 -4.54 45.15 -59.25 -4.54 45.04 -61.65 -4.54 44.95 
-64.05 -4.54 44.89 -66.46 -4.54 44.83 -68.87 -4.54 44.79 
-71.29 -4.54 44.76 -73.72 -4.54 44.73 -76.14 -4.54 44.70 
-78.57 -4.54 44.68 -81.00 -4.54 44.66 -83.42 -4.54 44.64 
-85.85 -4.54 44.62 -88.28 -4.54 44.60 -90.70 -4.54 44.58 
-93.13 -4.54 44.56 -95.56 -4.54 44.54 -97.98 -4.54 44.52 
-100.41 -4.54 44.50 -102.85 -4.54 44.48 -105.28 -4.54 44.46 
-107.72 -4.54 44.44 -110.16 -4.54 44.42 -112.61 -4.54 44.40 
-115.07 -4.54 44.38 -117.52 -4.54 44.36 -119.99 -4.54 44.34 
-122.45 -4.54 44.32 -124.92 -4.54 44.30 -127.39 -4.54 44.28 
-129.87 -4.54 44.25 -132.34 -4.54 44.23 -134.82 -4.54 44.21 
-137.30 -4.54 44.19 -139.78 -4.54 44.17 -142.25 -4.54 44.15 
-144.72 -4.54 44.13 -147.19 -4.54 44.11 -149.65 -4.54 44.09 
-152.11 -4.54 44.07 -154.55 -4.54 44.05 -156.99 -4.54 44.03 
-159.41 -4.54 44.01 -161.82 -4.54 43.99 -164.20 -4.54 43.97 
-166.57 -4.54 43.95 -168.92 -4.54 43.93 -171.23 -4.54 43.91 
-173.52 -4.54 43.90 -175.78 -4.54 43.88 -178.01 -4.54 43.86 
-180.20 -4.54 43.84 -182.35 -4.54 43.82 -184.47 -4.54 43.81 
-186.55 -4.54 43.79 -188.59 -4.54 43.77 -190.60 -4.54 43.76 
-192.57 -4.54 43.74 -194.52 -4.54 43.72 -196.43 -4.54 43.71 
-198.32 -4.54 43.69 -200.19 -4.54 43.68 -202.04 -4.54 43.66 
-203.88 -4.54 43.65 -205.71 -4.54 43.63 -207.54 -4.54 43.62 
-209.37 -4.54 43.60 -211.20 -4.54 43.59 -213.05 -4.54 43.57 
-214.92 -4.54 43.56 -216.81 -4.54 43.54 -218.74 -4.54 43.52 
-220.69 -4.54 43.51 -222.67 -4.54 43.49 -224.70 -4.54 43.47 
-226.76 -4.54 43.46 -228.87 -4.54 43.44 -231.01 -4.54 43.42 
-233.19 -4.54 43.40 -235.41 -4.54 43.37 -237.66 -4.54 43.34 
-239.94 -4.54 43.31 -242.24 -4.54 43.26 -244.57 -4.54 43.20 
-246.90 -4.54 43.13 -249.24 -4.54 43.04 -251.59 -4.54 42.91 
-253.93 -4.54 42.75 -256.25 -4.54 42.55 -258.57 -4.54 42.30 
-260.86 -4.54 41.99 -263.12 -4.54 41.61 -265.35 -4.54 41.16 
-267.55 -4.54 40.63 -269.70 -4.54 40.02 -271.81 -4.54 39.31 
-273.88 -4.54 38.52 -275.89 -4.54 37.63 -277.86 -4.54 36.64 
-279.76 -4.54 35.56 -281.60 -4.54 34.38 -283.38 -4.54 33.11 
-285.09 -4.54 31.76 -286.72 -4.54 30.31 -288.28 -4.54 28.79 
-289.76 -4.54 27.18 -291.16 -4.54 25.50 -292.46 -4.54 23.76 
-293.68 -4.54 21.95 -294.80 -4.54 20.08 -295.82 -4.54 18.16 
-296.74 -4.54 16.20 -297.56 -4.54 14.20 -298.27 -4.54 12.17 
-298.88 -4.54 10.11 -299.39 -4.54 8.04 -299.79 -4.54 5.95 
-300.08 -4.54 3.86 -300.27 -4.54 1.78 -300.36 -4.54 -0.29 
-300.34 -4.54 -2.36 -300.23 -4.54 -4.40 -300.02 -4.54 -6.41 
-299.71 -4.54 -8.40 -299.31 -4.54 -10.36 -298.82 -4.54 -12.28 
-298.24 -4.54 -14.17 -297.58 -4.54 -16.02 -296.82 -4.54 -17.83 
-295.99 -4.54 -19.60 -295.07 -4.54 -21.33 -294.06 -4.54 -23.02 
-292.98 -4.54 -24.65 -291.81 -4.54 -26.24 -290.57 -4.54 -27.78 
-289.24 -4.54 -29.27 -287.83 -4.54 -30.70 -286.35 -4.54 -32.07 
-284.79 -4.54 -33.37 -283.16 -4.54 -34.61 -281.45 -4.54 -35.78 
-279.67 -4.54 -36.87 -277.82 -4.54 -37.88 -275.90 -4.54 -38.82 
-273.93 -4.54 -39.67 -271.89 -4.54 -40.43 -269.79 -4.54 -41.11 
-267.65 -4.54 -41.71 -265.46 -4.54 -42.22 -263.22 -4.54 -42.66 
-260.95 -4.54 -43.02 -258.65 -4.54 -43.32 -256.32 -4.54 -43.55 
-253.97 -4.54 -43.73 -251.59 -4.54 -43.87 -249.21 -4.54 -43.96 
-246.80 -4.54 -44.03 -244.39 -4.54 -44.07 -241.98 -4.54 -44.10 
-239.55 -4.54 -44.11 -237.12 -4.54 -44.11 -234.69 -4.54 -44.10 
-232.26 -4.54 -44.09 -229.82 -4.54 -44.07 -227.39 -4.54 -44.05 
-224.95 -4.54 -44.04 -222.51 -4.54 -44.02 -220.07 -4.54 -44.00 
-217.62 -4.54 -43.98 -215.18 -4.54 -43.96 -212.73 -4.54 -43.94 
-210.29 -4.54 -43.92 -207.84 -4.54 -43.90 -205.38 -4.54 -43.88 
-202.93 -4.54 -43.86 -200.47 -4.54 -43.84 -198.01 -4.54 -43.82 
-195.55 -4.54 -43.80 -193.09 -4.54 -43.78 -190.62 -4.54 -43.76 
-188.14 -4.54 -43.74 -185.67 -4.54 -43.72 -183.19 -4.54 -43.69 
-180.71 -4.54 -43.67 -178.22 -4.54 -43.65 -175.73 -4.54 -43.63 
-173.23 -4.54 -43.61 -170.74 -4.54 -43.59 -168.24 -4.54 -43.57 
-165.73 -4.54 -43.55 -163.23 -4.54 -43.53 -160.72 -4.54 -43.51 
-158.20 -4.54 -43.49 -155.69 -4.54 -43.47 -153.17 -4.54 -43.45 
-150.66 -4.54 -43.43 -148.14 -4.54 -43.41 -145.62 -4.54 -43.39 
-143.10 -4.54 -43.37 -140.58 -4.54 -43.34 -138.07 -4.54 -43.32 
-135.55 -4.54 -43.30 -133.03 -4.54 -43.28 -130.52 -4.54 -43.26 
-128.01 -4.54 -43.24 -125.51 -4.54 -43.22 -123.00 -4.54 -43.20 
-120.51 -4.54 -43.18 -118.01 -4.54 -43.16 -115.52 -4.54 -43.14 
-113.04 -4.54 -43.12 -110.56 -4.54 -43.10 -108.09 -4.54 -43.08 
-105.62 -4.54 -43.06 -103.16 -4.54 -43.04 -100.70 -4.54 -43.02 
-98.24 -4.54 -43.00 -95.79 -4.54 -42.98 -93.34 -4.54 -42.96 
-90.90 -4.54 -42.94 -88.46 -4.54 -42.92 -86.02 -4.54 -42.90 
-83.58 -4.54 -42.88 -81.15 -4.54 -42.86 -78.71 -4.54 -42.84 
-76.28 -4.54 -42.82 -73.86 -4.54 -42.81 -71.43 -4.54 -42.80 
-69.00 -4.54 -42.79 -66.58 -4.54 -42.79 -64.17 -4.54 -42.80 
-61.76 -4.54 -42.83 -59.36 -4.54 -42.87 -56.96 -4.54 -42.94 
-54.58 -4.54 -43.03 -52.21 -4.54 -43.17 -49.86 -4.54 -43.35 
-47.53 -4.54 -43.58 -45.23 -4.54 -43.88 -42.95 -4.54 -44.24 
-40.69 -4.54 -44.67 -38.47 -4.54 -45.19 -36.29 -4.54 -45.79 
-34.14 -4.54 -46.48 -32.04 -4.54 -47.26 -29.97 -4.54 -48.13 
-27.95 -4.54 -49.11 -25.98 -4.54 -50.18 -24.06 -4.54 -51.35 
-22.19 -4.54 -52.62 -20.37 -4.54 -53.99 -18.62 -4.54 -55.47 
-16.93 -4.54 -57.03 -15.31 -4.54 -58.70 -13.76 -4.54 -60.46 
-12.30 -4.54 -62.31 -10.92 -4.54 -64.25 -9.63 -4.54 -66.27 
-8.44 -4.54 -68.38 -7.35 -4.54 -70.55 -6.38 -4.54 -72.79 
-5.52 -4.54 -75.09 -4.77 -4.54 -77.44 -4.15 -4.54 -79.84 
-3.66 -4.54 -82.27 -3.30 -4.54 -84.74 -3.07 -4.54 -87.22 
-2.97 -4.54 -89.71 -3.01 -4.54 -92.21 -3.18 -4.54 -94.71 
-3.49 -4.54 -97.19 -3.92 -4.54 -99.65 -4.49 -4.54 -102.09 
-5.19 -4.54 -104.48 -6.02 -4.54 -106.83 -6.96 -4.54 -109.13 
-8.02 -4.54 -111.36 -9.20 -4.54 -113.53 -10.48 -4.54 -115.62 
-11.85 -4.54 -117.63 -13.32 -4.54 -119.56 -14.88 -4.54 -121.39 
-16.51 -4.54 -123.13 -18.20 -4.54 -124.76 -19.96 -4.54 -126.29 
-21.77 -4.54 -127.72 -23.63 -4.54 -129.04 -25.52 -4.54 -130.25 
-27.45 -4.54 -131.36 -29.40 -4.54 -132.37 -31.38 -4.54 -133.27 
[...]
POINT_DATA 1094
FIELD FieldData 1
MaximumInscribedSphereRadius 1 1094 double
1.50 1.50 1.50 1.50 1.50 1.50 1.50 1.50 1.50 
1.50 1.50 1.50 1.50 1.50 1.50 1.50 1.50 1.50 
1.50 1.50 1.50 1.50 1.50 1.50 1.50 1.50 1.50 
1.50 1.50 1.50 1.50 1.50 1.50 1.50 1.50 1.50 
1.50 1.50 1.50 1.50 1.50 1.50 1.50 1.50 1.50 
1.50 1.50 1.50 1.50 1.50 1.50 1.50 1.50 1.50 
1.50 1.50 1.50 1.50 1.50 1.50 1.50 1.50 1.50 
1.50 1.50 1.50 1.50 1.50 1.50 1.50 1.50 1.50 
1.50 1.50 1.50 1.50 1.50 1.50 1.50 1.50 1.50 
1.50 1.50 1.50 1.50 1.50 1.50 1.50 1.50 1.50 
1.50 1.50 1.50 1.50 1.50 1.50 1.50 1.50 1.50 
1.50 1.50 1.50 1.50 1.50 1.50 1.50 1.50 1.50 
1.50 1.50 1.50 1.50 1.50 1.50 1.50 1.50 1.50 
1.50 1.50 1.49 1.49 1.49 1.49 1.49 1.49 1.49 
1.49 1.49 1.49 1.49 1.49 1.49 1.49 1.49 1.49 
1.49 1.49 1.49 1.49 1.49 1.49 1.49 1.49 1.49 
1.49 1.49 1.49 1.49 1.49 1.49 1.49 1.49 1.49 
1.49 1.49 1.49 1.49 1.49 1.49 1.49 1.49 1.49 
1.49 1.49 1.49 1.49 1.49 1.49 1.49 1.49 1.49 
1.49 1.49 1.49 1.49 1.49 1.49 1.49 1.49 1.49 
1.49 1.49 1.49 1.49 1.49 1.49 1.50 1.50 1.50 
1.50 1.50 1.50 1.50 1.50 1.50 1.50 1.50 1.50 
1.50 1.50 1.50 1.50 1.50 1.50 1.50 1.50 1.50 
1.50 1.50 1.50 1.50 1.50 1.50 1.50 1.50 1.50 
1.50 1.50 1.50 1.50 1.50 1.50 1.50 1.50 1.50 
1.50 1.50 1.50 1.50 1.50 1.50 1.50 1.50 1.50 
1.50 1.50 1.50 1.50 1.50 1.50 1.50 1.50 1.50 
1.50 1.50 1.50 1.50 1.50 1.50 1.50 1.50 1.50 
1.50 1.50 1.50 1.50 1.50 1.50 1.50 1.50 1.50 
1.50 1.50 1.50 1.50 1.50 1.50 1.50 1.50 1.50 
1.50 1.50 1.50 1.50 1.50 1.50 1.50 1.50 1.50 
1.49 1.49 1.49 1.49 1.49 1.49 1.49 1.49 1.49 
1.49 1.49 1.49 1.49 1.49 1.49 1.49 1.49 1.49 
1.49 1.49 1.49 1.49 1.49 1.49 1.49 1.49 1.49 
1.49 1.49 1.49 1.49 1.49 1.49 1.49 1.49 1.49 
1.49 1.49 1.49 1.49 1.49 1.49 1.49 1.49 1.49 
1.49 1.49 1.49 1.49 1.49 1.49 1.49 1.49 1.49 
1.49 1.49 1.49 1.49 1.49 1.49 1.49 1.49 1.50 
1.50 1.50 1.50 1.50 1.50 1.50 1.50 1.50 1.50 
1.50 1.50 1.50 1.50 1.50 1.50 1.50 1.50 1.50 
1.50 1.50 1.50 1.50 1.50 1.50 1.50 1.50 1.50 
1.50 1.50 1.50 1.50 1.50 1.50 1.50 1.50 1.50 
1.50 1.50 1.50 1.50 1.50 1.50 1.50 1.50 1.50 
1.50 1.50 1.50 1.50 1.50 1.50 1.50 1.50 1.50 
1.50 1.50 1.50 1.50 1.50 1.50 1.50 1.50 1.50 
1.50 1.50 1.50 1.50 1.50 1.50 1.50 1.50 1.50 
1.50 1.50 1.50 1.50 1.50 1.50 1.50 1.50 1.49 
1.49 1.49 1.49 1.49 1.49 1.49 1.49 1.48 1.48 
1.48 1.48 1.48 1.48 1.48 1.48 1.48 1.48 1.48 
1.48 1.48 1.48 1.48 1.48 1.48 1.48 1.48 1.48 
1.48 1.48 1.48 1.48 1.48 1.48 1.48 1.48 1.48 
1.48 1.48 1.48 1.48 1.48 1.48 1.48 1.48 1.48 
1.48 1.48 1.48 1.48 1.48 1.48 1.48 1.48 1.48 
1.48 1.48 1.48 1.48 1.48 1.48 1.48 1.48 1.49 
1.49 1.49 1.49 1.49 1.49 1.50 1.50 1.50 1.50 
1.50 1.50 1.50 1.50 1.50 1.50 1.50 1.50 1.50 
1.50 1.50 1.50 1.50 1.50 1.50 1.50 1.50 1.50 
1.50 1.50 1.50 1.50 1.50 1.50 1.50 1.50 1.50 
1.50 1.50 1.50 1.50 1.50 1.50 1.50 1.50 1.50 
1.50 1.50 1.50 1.50 1.50 1.50 1.50 1.50 1.50 
1.50 1.50 1.50 1.50 1.50 1.50 1.50 1.50 1.50 
1.50 1.50 1.50 1.50 1.50 1.50 1.50 1.50 1.50 
1.50 1.50 1.50 1.50 1.50 1.50 1.50 1.50 1.50 
1.50 1.50 1.50 1.50 1.50 1.50 1.50 1.50 1.50 
1.50 1.50 1.49 1.49 1.49 1.49 1.49 1.49 1.49 
1.49 1.49 1.49 1.49 1.49 1.49 1.49 1.49 1.49 
1.49 1.49 1.49 1.49 1.49 1.49 1.49 1.49 1.49 
1.49 1.49 1.49 1.49 1.49 1.48 1.48 1.48 1.48 
1.48 1.48 1.48 1.49 1.49 1.49 1.49 1.49 1.49 
1.49 1.49 1.49 1.49 1.49 1.49 1.49 1.49 1.49 
1.49 1.49 1.49 1.49 1.49 1.49 1.50 1.50 1.50 
1.50 1.50 1.50 1.50 1.50 1.50 1.50 1.50 1.50 
1.50 1.50 1.50 1.50 1.50 1.50 1.50 1.50 1.50 
1.50 1.50 1.50 1.50 1.50 1.50 1.50 1.50 1.50 
1.50 1.50 1.50 1.50 1.50 1.50 1.50 1.50 1.50 
1.50 1.50 1.50 1.50 1.50 1.50 1.50 1.50 1.50 
1.50 1.50 1.50 1.50 1.50 1.50 1.50 1.50 1.50 
1.50 1.50 1.50 1.50 1.50 1.50 1.50 1.50 1.50 
1.50 1.50 1.50 1.50 1.50 1.50 1.50 1.50 1.50 
1.50 1.50 1.50 1.50 1.50 1.50 1.50 1.50 1.50 
1.50 1.50 1.50 1.50 1.50 1.49 1.49 1.49 1.49 
1.49 1.49 1.49 1.49 1.49 1.49 1.49 1.49 1.49 
1.49 1.49 1.49 1.49 1.49 1.49 1.49 1.49 1.49 
1.49 1.49 1.49 1.49 1.49 1.49 1.49 1.49 1.49 
1.49 1.49 1.49 1.49 1.49 1.49 1.49 1.49 1.49 
1.49 1.49 1.49 1.49 1.49 1.49 1.49 1.49 1.49 
1.49 1.49 1.49 1.49 1.49 1.49 1.49 1.49 1.49 
1.49 1.49 1.49 1.49 1.50 1.50 1.50 1.50 1.50 
1.50 1.50 1.50 1.50 1.50 1.50 1.50 1.50 1.50 
1.50 1.50 1.50 1.50 1.50 1.50 1.50 1.50 1.50 
1.50 1.50 1.50 1.50 1.50 1.50 1.50 1.50 1.50 
1.50 1.50 1.50 1.50 1.50 1.50 1.50 1.50 1.50 
1.50 1.50 1.50 1.50 1.50 1.50 1.50 1.50 1.50 
1.50 1.50 1.50 1.50 1.50 1.50 1.50 1.50 1.50 
1.50 1.50 1.50 1.50 1.50 1.50 1.50 1.50 1.50 
1.50 1.50 1.50 1.50 1.50 1.50 1.50 1.50 1.50 
1.50 1.50 1.50 1.50 1.50 1.50 1.50 1.50 1.50 
1.50 1.50 1.50 1.50 1.50 1.50 1.50 1.50 1.50 
1.50 1.50 1.50 1.51 1.51 1.51 1.52 1.52 1.53 
1.53 1.54 1.54 1.54 1.54 1.54 1.54 1.54 1.53 
1.53 1.52 1.52 1.51 1.51 1.51 1.50 1.50 1.50 
1.50 1.50 1.50 1.50 1.50 1.50 1.50 1.50 1.50 
1.50 1.50 1.50 1.50 1.50 1.50 1.50 1.50 1.50 
1.50 1.50 1.50 1.50 1.50 1.50 1.50 1.50 1.50 
1.50 1.50 1.50 1.50 1.50 1.50 1.50 1.50 1.50 
1.50 1.50 1.50 1.50 1.50 1.50 1.50 1.50 1.50 
1.50 1.50 1.50 1.50 1.50 1.50 1.50 1.50 1.50 
1.50 1.50 1.50 1.50 1.50 1.50 1.50 1.50 1.50 
1.50 1.50 1.50 1.50 1.50 1.50 1.50 1.50 1.50 
1.50 1.50 1.50 1.50 1.50 1.50 1.50 1.50 1.50 
1.50 1.50 1.50 1.50 1.50 1.50 1.50 1.50 1.50 
1.50 1.50 1.50 1.50 1.50 1.50 1.50 1.50 1.50 
1.50 1.50 1.50 1.50 1.50 1.50 1.50 1.50 1.50 
1.50 1.50 1.50 1.50 1.50 1.50 1.50 1.50 1.50 
1.50 1.50 1.50 1.50 1.50 1.50 1.50 1.50 1.50 
1.50 1.50 1.50 1.50 1.50 1.50 1.50 1.50 1.50 
1.50 1.50 1.50 1.50 1.50 1.50 1.50 1.50 1.50 
1.50 1.50 1.50 1.50 1.50 1.50 1.50 1.50 1.50 
1.50 1.50 1.50 1.50 1.50 1.50 1.50 1.50 1.50 
1.50 1.50 1.50 1.50 1.50 1.50 1.50 1.50 1.50 
1.50 1.50 1.50 1.50 1.50 1.50 1.50 1.50 1.50 
1.50 1.50 1.50 1.50 1.50 
