# vtk DataFile Version 3.0
vtk output
ASCII
DATASET POLYDATA
POINTS 16 float
2889.22 208.75 817.08 2893.35 207.72 816.45 2897.83 206.56 815.73 
2902.43 205.31 814.97 2906.96 204.02 814.21 2911.34 202.73 813.48 
2915.55 201.45 812.80 2919.66 200.20 812.18 2923.75 199.00 811.61 
2927.86 197.86 811.11 2931.99 196.80 810.68 2936.04 195.86 810.33 
2939.87 195.07 810.08 2943.28 194.43 809.92 2877.60 211.38 818.58 
2952.33 193.05 809.77 
LINES 1 17
16 15 13 12 11 10 9 8 7 6 5 4 3 2 1 0 14 
POINT_DATA 16
FIELD FieldData 1
MaximumInscribedSphereRadius 1 16 double
74.16 71.70 68.70 65.28 61.62 57.88 54.19 50.66 47.37 
44.38 41.76 39.57 37.84 36.55 76.03 35.66 
