# vtk DataFile Version 3.0
vtk output
ASCII
DATASET POLYDATA
POINTS 4 float
1771.19 -204.57 1404.82 1771.24 -204.46 1405.53 1771.02 -204.95 1402.21 
1771.41 -204.08 1408.14 
LINES 1 5
4 3 1 0 2 
POINT_DATA 4
FIELD FieldData 1
MaximumInscribedSphereRadius 1 4 double
65.87 65.87 65.87 65.87 
